# vtk DataFile Version 2.0
KG NN0
ASCII
DATASET STRUCTURED_POINTS
DIMENSIONS 20 20 20
ORIGIN 0 0 0
SPACING 1 1 1
POINT_DATA 8000
VECTORS Vectors0 float
0 0 0
0 0 0
0 0 0
0 0 0
0 0 0
0 0 0
0 0 0
0 0 0
0 0 0
0 0 0
0 0 0
0 0 0
0 0 0
0 0 0
0 0 0
0 0 0
0 0 0
0 0 0
0 0 0
0 0 0
0 0 0
0 0 0
0 0 0
0 0 0
0 0 0
0 0 0
0 0 0
0 0 0
0 0 0
0 0 0
0 0 0
0 0 0
0 0 0
0 0 0
0 0 0
0 0 0
0 0 0
0 0 0
0 0 0
0 0 0
0 0 0
0 0 0
0 0 0
0 0 0
0 0 0
0 0 0
0 0 0
0 0 0
0 0 0
0 0 0
0 0 0
0 0 0
0 0 0
0 0 0
0 0 0
0 0 0
0 0 0
0 0 0
0 0 0
0 0 0
0 0 0
0 0 0
0 0 0
0 0 0
0 0 0
0 0 0
0 0 0
0 0 0
0 0 0
0 0 0
0 0 0
0 0 0
0 0 0
0 0 0
0 0 0
0 0 0
0 0 0
0 0 0
0 0 0
0 0 0
0 0 0
0 0 0
0 0 0
0 0 0
0 0 0
0 0 0
0 0 0
0 0 0
0 0 0
0 0 0
0 0 0
0 0 0
0 0 0
0 0 0
0 0 0
0 0 0
0 0 0
0 0 0
0 0 0
0 0 0
0 0 0
0 0 0
0 0 0
0 0 0
0 0 0
0 0 0
0 0 0
0 0 0
0 0 0
0 0 0
0 0 0
0 0 0
0 0 0
0 0 0
0 0 0
0 0 0
0 0 0
0 0 0
0 0 0
0 0 0
0 0 0
0 0 0
0 0 0
0 0 0
0 0 0
0 0 0
0 0 0
0 0 0
0 0 0
0 0 0
0 0 0
0 0 0
0 0 0
0 0 0
0 0 0
0 0 0
0 0 0
0 0 0
0 0 0
0 0 0
0 0 0
0 0 0
0 0 0
0 0 0
0 0 0
0 0 0
0 0 0
0 0 0
0 0 0
0 0 0
0 0 0
0 0 0
0 0 0
0 0 0
0 0 0
0 0 0
0 0 0
0 0 0
0 0 0
0 0 0
0 0 0
0 0 0
0 0 0
0 0 0
0 0 0
0 0 0
0 0 0
0 0 0
0 0 0
0 0 0
0 0 0
0 0 0
0 0 0
0 0 0
0 0 0
0 0 0
0 0 0
0 0 0
0 0 0
0 0 0
0 0 0
0 0 0
0 0 0
0 0 0
0 0 0
0 0 0
0 0 0
0 0 0
0 0 0
0 0 0
0 0 0
0 0 0
0 0 0
0 0 0
0 0 0
0 0 0
0 0 0
0 0 0
0 0 0
0 0 0
0 0 0
0 0 0
0 0 0
0 0 0
0 0 0
0 0 0
0 0 0
0 0 0
0 0 0
0 0 0
0 0 0
0 0 0
0 0 0
0 0 0
0 0 0
0 0 0
0 0 0
0 0 0
0 0 0
0 0 0
0 0 0
0 0 0
0 0 0
0 0 0
0 0 0
0 0 0
0 0 0
0 0 0
0 0 0
0 0 0
0 0 0
0 0 0
0 0 0
0 0 0
0 0 0
0 0 0
0 0 0
0 0 0
0 0 0
0 0 0
0 0 0
0 0 0
0 0 0
0 0 0
0 0 0
0 0 0
0 0 0
0 0 0
0 0 0
0 0 0
0 0 0
0 0 0
0 0 0
0 0 0
0 0 0
0 0 0
0 0 0
0 0 0
0 0 0
0 0 0
0 0 0
0 0 0
0 0 0
0 0 0
0 0 0
0 0 0
0 0 0
0 0 0
0 0 0
0 0 0
0 0 0
0 0 0
0 0 0
0 0 0
0 0 0
0 0 0
0 0 0
0 0 0
0 0 0
0 0 0
0 0 0
0 0 0
0 0 0
0 0 0
0 0 0
0 0 0
0 0 0
0 0 0
0 0 0
0 0 0
0 0 0
0 0 0
0 0 0
0 0 0
0 0 0
0 0 0
0 0 0
0 0 0
0 0 0
0 0 0
0 0 0
0 0 0
0 0 0
0 0 0
0 0 0
0 0 0
0 0 0
0 0 0
0 0 0
0 0 0
0 0 0
0 0 0
0 0 0
0 0 0
0 0 0
0 0 0
0 0 0
0 0 0
0 0 0
0 0 0
0 0 0
0 0 0
0 0 0
0 0 0
0 0 0
0 0 0
0 0 0
0 0 0
0 0 0
0 0 0
0 0 0
0 0 0
0 0 0
0 0 0
0 0 0
0 0 0
0 0 0
0 0 0
0 0 0
0 0 0
0 0 0
0 0 0
0 0 0
0 0 0
0 0 0
0 0 0
0 0 0
0 0 0
0 0 0
0 0 0
0 0 0
0 0 0
0 0 0
0 0 0
0 0 0
0 0 0
0 0 0
0 0 0
0 0 0
0 0 0
0 0 0
0 0 0
0 0 0
0 0 0
0 0 0
0 0 0
0 0 0
0 0 0
0 0 0
0 0 0
0 0 0
0 0 0
0 0 0
0 0 0
0 0 0
0 0 0
0 0 0
0 0 0
0 0 0
0 0 0
0.5 0 0
0.5 0 0
0.5 0 0
0.5 0 0
0.5 0 0
0.5 0 0
0.5 0 0
0.5 0 0
0.5 0 0
0.5 0 0
0.5 0 0
0.5 0 0
0.5 0 0
0.5 0 0
0.5 0 0
0.5 0 0
0.5 0 0
0.5 0 0
0.5 0 0
0.5 0 0
0 0 0
0 0 0
0 0 0
0 0 0
0 0 0
0 0 0
0 0 0
0 0 0
0 0 0
0 0 0
0 0 0
0 0 0
0 0 0
0 0 0
0 0 0
0 0 0
0 0 0
0 0 0
0 0 0
0 0 0
0 0 0
-0.000430518 -0.000501359 5.00859e-005
-0.000514867 -0.000493934 6.83562e-005
-0.000481936 -0.00044625 6.87326e-005
-0.000394093 -0.000400411 6.0773e-005
-0.000287842 -0.000338924 4.9718e-005
-0.00018454 -0.000271654 3.78887e-005
-9.6864e-005 -0.000216263 2.78033e-005
-2.85558e-005 -0.000179369 2.13548e-005
2.26778e-005 -0.000144933 1.58109e-005
0 0 0
-0.00036212 -0.000559964 6.48241e-005
-0.000368357 -0.000487015 6.52545e-005
-0.000297764 -0.000341712 5.17237e-005
-0.000202357 -0.000239989 3.66194e-005
-0.000117327 -0.000174127 2.38556e-005
-5.62961e-005 -0.000129745 1.54271e-005
-1.46471e-005 -0.000102482 1.06448e-005
1.36436e-005 -8.03417e-005 7.35824e-006
0 0 0
0 0 0
-0.000497874 -0.000573371 6.50781e-005
-0.00063102 -0.000609532 9.6601e-005
-0.000627221 -0.000611392 0.00010239
-0.000551857 -0.000592541 9.58855e-005
-0.00043503 -0.000533158 8.30983e-005
-0.000298653 -0.000450496 6.58351e-005
-0.000167217 -0.000373918 4.92988e-005
-5.30223e-005 -0.000320862 3.83271e-005
3.69774e-005 -0.000270268 3.02344e-005
0 0 0
-0.000503222 -0.000747759 9.53735e-005
-0.000546737 -0.000669472 0.000106119
-0.000457084 -0.000516785 9.04418e-005
-0.000323007 -0.000399164 6.62707e-005
-0.000199274 -0.000303327 4.51929e-005
-0.000101863 -0.000229772 2.96789e-005
-2.99588e-005 -0.000183558 2.05089e-005
2.06064e-005 -0.000147801 1.47949e-005
0 0 0
0 0 0
-0.000530706 -0.000552867 6.59597e-005
-0.00071907 -0.000641204 0.00010299
-0.000773033 -0.000713474 0.000114498
-0.000743908 -0.000762 0.000116376
-0.000636336 -0.000751379 0.000108602
-0.000470657 -0.000692765 9.25664e-005
-0.000279613 -0.000620922 7.44818e-005
-9.14871e-005 -0.000565062 6.21165e-005
7.09109e-005 -0.000493167 5.12484e-005
0 0 0
-0.000662428 -0.000873693 0.000112868
-0.000761219 -0.000830255 0.000135896
-0.000670723 -0.000713567 0.000120694
-0.000507624 -0.000606101 9.40315e-005
-0.000335176 -0.000492674 6.85304e-005
-0.000182088 -0.000392976 4.76737e-005
-5.71124e-005 -0.000325154 3.43804e-005
3.61603e-005 -0.000266763 2.55148e-005
0 0 0
0 0 0
-0.000505183 -0.000490222 6.37548e-005
-0.000736057 -0.000623867 0.000103221
-0.000868461 -0.000770584 0.00012277
-0.000920052 -0.000915032 0.000136762
-0.000863881 -0.00100694 0.000140643
-0.000692478 -0.00103073 0.000131283
-0.000440086 -0.00101514 0.000115865
-0.000144962 -0.000995055 0.00010459
0.000138497 -0.000908677 9.01371e-005
0 0 0
-0.000798875 -0.000944175 0.000128362
-0.000976038 -0.000975809 0.000168099
-0.000923447 -0.000943237 0.00015842
-0.000757237 -0.000883514 0.000133873
-0.000541094 -0.000779397 0.000105955
-0.000313688 -0.000666222 7.89099e-005
-0.00010586 -0.00058034 6.01596e-005
6.42267e-005 -0.000491138 4.60126e-005
0 0 0
0 0 0
-0.000419397 -0.000410838 5.77782e-005
-0.000660024 -0.000561801 9.39243e-005
-0.000861695 -0.000755454 0.000118634
-0.00102185 -0.00100782 0.000146918
-0.00106331 -0.00125845 0.000167988
-0.000937197 -0.00146263 0.000175961
-0.000633708 -0.00161444 0.000173422
-0.000193041 -0.00173078 0.000172836
0.000288904 -0.00166853 0.000157332
0 0 0
-0.000866297 -0.000926558 0.000133813
-0.00114204 -0.00106581 0.000191541
-0.00117634 -0.00115985 0.000193189
-0.00106335 -0.00121128 0.000180463
-0.000827089 -0.00118022 0.000155719
-0.000516874 -0.00110367 0.000126168
-0.000181512 -0.00103159 0.000103289
0.00012293 -0.000912145 8.27862e-005
0 0 0
0 0 0
-0.00030779 -0.000366868 5.24051e-005
-0.000493803 -0.000491495 7.7015e-005
-0.000716137 -0.000686878 0.000101386
-0.000958108 -0.00101557 0.000138194
-0.00113268 -0.00146855 0.000182475
-0.00110313 -0.00197923 0.000220716
-0.000788155 -0.00249848 0.000252777
-0.000158227 -0.00296326 0.000283414
0.000616455 -0.00302368 0.000272736
0 0 0
-0.00082757 -0.000830103 0.000126564
-0.00118467 -0.00106581 0.000195112
-0.00135686 -0.00131111 0.000216939
-0.0013609 -0.00154352 0.000225076
-0.00117001 -0.00170009 0.000217158
-0.000787312 -0.00177808 0.000195154
-0.000278593 -0.00181814 0.000176036
0.000253988 -0.0017008 0.000149828
0 0 0
0 0 0
-0.000227149 -0.000396368 5.31282e-005
-0.000316168 -0.000480985 6.67785e-005
-0.000455167 -0.000626061 7.88926e-005
-0.000689996 -0.000980014 0.000115168
-0.000935508 -0.00162625 0.000177133
-0.00102751 -0.00258686 0.000262184
-0.000709095 -0.00377068 0.000358878
0.000143145 -0.00496055 0.00045803
0.00132518 -0.00535399 0.000466717
0 0 0
-0.00067553 -0.000704545 0.000106372
-0.00105669 -0.000987859 0.000175106
-0.0013515 -0.00134768 0.000214564
-0.0015369 -0.00182019 0.000254571
-0.00146555 -0.00231273 0.000279035
-0.00106913 -0.0027723 0.000289109
-0.00033278 -0.00315673 0.000294881
0.000551666 -0.00314777 0.000269478
0 0 0
0 0 0
-0.000231036 -0.000519247 6.51441e-005
-0.000219009 -0.000576901 7.25859e-005
-0.000225848 -0.000678049 7.7431e-005
-0.000289525 -0.0010129 0.000104036
-0.000440642 -0.00183844 0.000179161
-0.000472429 -0.0033699 0.000316316
-7.91438e-005 -0.00561014 0.000514412
0.00112263 -0.00809573 0.000734213
0.00274437 -0.00914165 0.00077842
0 0 0
-0.000489993 -0.000654793 8.93235e-005
-0.000764997 -0.000896559 0.000137389
-0.0010972 -0.00130392 0.00018626
-0.0014095 -0.00199733 0.000251093
-0.00152848 -0.00299575 0.000330635
-0.00115566 -0.00418549 0.00040827
-0.000165424 -0.00536371 0.000484838
0.00123997 -0.00572313 0.000479703
0 0 0
0 0 0
-0.000293406 -0.000720166 8.33871e-005
-0.000242154 -0.000813413 9.75573e-005
-9.36839e-005 -0.000918084 0.000102107
7.05146e-005 -0.00130499 0.000141262
0.000333186 -0.00235381 0.000244445
0.000717263 -0.00462454 0.000449363
0.00166004 -0.00837817 0.000784172
0.00337352 -0.0128222 0.0011703
0.00545958 -0.0149563 0.0012673
0 0 0
-0.000371473 -0.000741795 8.865e-005
-0.000479978 -0.000933286 0.000119663
-0.000638093 -0.00129355 0.000151834
-0.000918561 -0.00217324 0.000233958
-0.00105509 -0.0037926 0.000371609
-0.000688407 -0.00619144 0.000568537
0.000701807 -0.00888928 0.000786688
0.00270911 -0.0100554 0.000831007
0 0 0
0 0 0
-0.000419795 -0.00103227 0.000115472
-0.000288154 -0.00118467 0.000134599
-4.59539e-005 -0.00142554 0.000157053
0.000494212 -0.00203818 0.000235869
0.00135787 -0.00357983 0.000421304
0.00292575 -0.00694718 0.000771848
0.00503273 -0.0126678 0.0012801
0.00789895 -0.0197649 0.00188341
0.00999423 -0.0230937 0.0019683
0 0 0
-0.000411358 -0.00101114 0.000113638
-0.000322467 -0.00118333 0.00013548
-0.000236282 -0.00155258 0.000167914
-9.42282e-005 -0.00260287 0.00026061
0.000113372 -0.00501863 0.000473005
0.00103474 -0.00918121 0.000834313
0.00300641 -0.0143042 0.00126993
0.00574615 -0.016932 0.00140367
0 0 0
0 0 0
-0.000533603 -0.00143435 0.00014976
-0.000397393 -0.00179137 0.000198523
0.000147018 -0.00228957 0.000247318
0.00108713 -0.00352417 0.000404375
0.00324435 -0.00616531 0.000783118
0.00654082 -0.0111861 0.00137197
0.0112011 -0.0195054 0.0022039
0.0153152 -0.0292345 0.0029547
0.0170693 -0.033691 0.00293893
0 0 0
-0.000510261 -0.00141577 0.000147704
-0.000360171 -0.00175131 0.000193995
0.000148404 -0.00227171 0.000245607
0.000883971 -0.00378166 0.000410096
0.00241174 -0.00737359 0.000772649
0.00463554 -0.0139206 0.00135315
0.00817059 -0.022462 0.00209026
0.0110658 -0.0267454 0.00224243
0 0 0
0 0 0
-0.000766795 -0.00208989 0.000215881
-0.00034377 -0.0026755 0.000281453
0.000435108 -0.00387034 0.000409657
0.00265196 -0.00638877 0.000751812
0.00650513 -0.0111027 0.00139552
0.0133449 -0.0188956 0.00250518
0.0206822 -0.0294442 0.00361951
0.026695 -0.0416148 0.00453256
0.0261135 -0.0457066 0.00406118
0 0 0
-0.000756079 -0.00208566 0.000215511
-0.00030723 -0.00264696 0.000279162
0.000501752 -0.00379804 0.000406918
0.00267323 -0.00642591 0.000760706
0.00613018 -0.011982 0.00139958
0.011743 -0.0218622 0.00241321
0.016993 -0.0338202 0.00336469
0.0198391 -0.039702 0.00344013
0 0 0
0 0 0
-0.000834278 -0.00289666 0.00027821
-0.000390163 -0.00428326 0.000443793
0.00171877 -0.00672218 0.00072792
0.00550455 -0.011895 0.00137001
0.0137921 -0.0204997 0.00267194
0.0240432 -0.030939 0.00417828
0.0354248 -0.0434608 0.00580615
0.0405744 -0.0550989 0.00633954
0.0369489 -0.0589665 0.00535026
0 0 0
-0.000834382 -0.00289753 0.000278261
-0.000382131 -0.00427977 0.000443669
0.00177431 -0.00666644 0.000728311
0.00562737 -0.0117978 0.0013838
0.0137585 -0.0210225 0.00270561
0.0229139 -0.0338907 0.00410272
0.0313144 -0.0490696 0.00534491
0.0308402 -0.0538872 0.00476938
0 0 0
0 0 0
-0.00128169 -0.00445065 0.000438695
0.000508844 -0.0068943 0.000703653
0.00385457 -0.0124572 0.00132985
0.0133351 -0.0228034 0.00280758
0.0258225 -0.0358563 0.00461446
0.0423942 -0.0491931 0.00697516
0.05268 -0.0582652 0.00813467
0.0566046 -0.0698799 0.00843482
0.0486823 -0.0726532 0.00669677
0 0 0
-0.00128135 -0.00444976 0.000438505
0.000504443 -0.00689805 0.000703777
0.00386256 -0.0124484 0.00132984
0.0134552 -0.0226896 0.00282435
0.0260179 -0.0360272 0.00468295
0.0417086 -0.0518205 0.00693091
0.0482296 -0.0647698 0.00748913
0.0438942 -0.0693183 0.00629042
0 0 0
0 0 0
-0.000682657 -0.00621007 0.000567685
0.0013457 -0.0125433 0.00126035
0.0118296 -0.0244094 0.00285827
0.0266297 -0.0419728 0.00509324
0.0497007 -0.0606765 0.00833125
0.0630374 -0.0675488 0.00966296
0.0720824 -0.0748562 0.0107917
0.0733637 -0.084708 0.0105993
0.0607299 -0.086639 0.00807506
0 0 0
-0.000682765 -0.00621043 0.000567777
0.00134772 -0.0125415 0.00126026
0.0118177 -0.024417 0.00285711
0.0266676 -0.0419347 0.00509801
0.0499888 -0.0606138 0.00841812
0.0626894 -0.0694268 0.00967808
0.0674677 -0.081638 0.00997714
0.0575957 -0.0847733 0.0078268
0 0 0
0 0 0
-0.00149776 -0.0108268 0.00105693
0.00867548 -0.0240224 0.00266534
0.0251422 -0.0482223 0.00545689
0.0591067 -0.0765052 0.010297
0.0748623 -0.0830415 0.0114725
0.0854562 -0.0884986 0.012677
0.0914752 -0.0921162 0.0134199
0.0900415 -0.0993062 0.0128078
0.0734049 -0.10126 0.00954864
0 0 0
-0.00149764 -0.0108266 0.00105689
0.00867481 -0.024023 0.00266533
0.0251474 -0.0482189 0.00545738
0.0590797 -0.0765144 0.0102908
0.0750579 -0.0829972 0.0115277
0.0856034 -0.0892949 0.012794
0.0867237 -0.0977384 0.0124567
0.0718151 -0.100463 0.00943128
0 0 0
0 0 0
0.00496659 -0.0166211 0.00176655
0.0189269 -0.0521855 0.00539272
0.0713418 -0.0987699 0.0130477
0.0900558 -0.103407 0.0138837
0.100923 -0.10814 0.0149761
0.106242 -0.110355 0.015492
0.109256 -0.111631 0.015912
0.107337 -0.114337 0.0152801
0.0874519 -0.116029 0.0111501
0 0 0
0.00496658 -0.0166211 0.00176657
0.0189272 -0.0521853 0.00539274
0.07134 -0.0987707 0.0130474
0.0900663 -0.103402 0.0138857
0.10089 -0.108181 0.0149745
0.106614 -0.110472 0.0156231
0.106059 -0.113768 0.0151365
0.0869069 -0.115793 0.0111092
0 0 0
0 0 0
0.00489658 -0.0416826 0.00407185
0.0886794 -0.12933 0.0170147
0.109855 -0.130819 0.016967
0.119135 -0.133341 0.0177293
0.12275 -0.134377 0.0180547
0.124173 -0.134892 0.0182252
0.124635 -0.135176 0.0182952
0.124448 -0.134647 0.0180496
0.111248 -0.130552 0.0138987
0 0 0
0.00489658 -0.0416826 0.00407184
0.0886794 -0.12933 0.0170147
0.109856 -0.130819 0.0169671
0.119133 -0.133343 0.0177292
0.12276 -0.134368 0.0180551
0.124098 -0.134928 0.0182132
0.12425 -0.134534 0.0180122
0.111182 -0.130516 0.0138893
0 0 0
0.5 0 0
0.5 0 0
0.5 0 0
0.5 0 0
0.5 0 0
0.5 0 0
0.5 0 0
0.5 0 0
0.5 0 0
0.5 0 0
0.5 0 0
0.5 0 0
0.5 0 0
0.5 0 0
0.5 0 0
0.5 0 0
0.5 0 0
0.5 0 0
0.5 0 0
0.5 0 0
0 0 0
0 0 0
0 0 0
0 0 0
0 0 0
0 0 0
0 0 0
0 0 0
0 0 0
0 0 0
0 0 0
0 0 0
0 0 0
0 0 0
0 0 0
0 0 0
0 0 0
0 0 0
0 0 0
0 0 0
0 0 0
-0.000458234 -0.000523251 1.42279e-005
-0.000548538 -0.000513771 1.98584e-005
-0.000514592 -0.000470654 2.11067e-005
-0.000424661 -0.000428322 1.98922e-005
-0.000313947 -0.000366715 1.72706e-005
-0.000203552 -0.000297627 1.39117e-005
-0.000107852 -0.000240655 1.08305e-005
-3.23577e-005 -0.000203944 9.02135e-006
2.49609e-005 -0.00016901 7.18459e-006
0 0 0
-0.000432051 -0.000639504 2.85767e-005
-0.00043374 -0.000520765 2.49008e-005
-0.00033864 -0.00035895 1.82955e-005
-0.000224961 -0.000255531 1.27582e-005
-0.000130682 -0.000186385 8.2733e-006
-6.36442e-005 -0.000139088 5.26581e-006
-1.76991e-005 -0.000110553 3.61474e-006
1.36497e-005 -8.76124e-005 2.54597e-006
0 0 0
0 0 0
-0.000517632 -0.000592945 1.68557e-005
-0.000652482 -0.000622412 2.42217e-005
-0.000648056 -0.000628682 2.64617e-005
-0.000573556 -0.000615158 2.61731e-005
-0.000455589 -0.000558666 2.40434e-005
-0.000314648 -0.000477308 2.01935e-005
-0.000176371 -0.00040198 1.62113e-005
-5.39795e-005 -0.000351684 1.3884e-005
4.31377e-005 -0.000303603 1.21744e-005
0 0 0
-0.000583049 -0.000832571 3.86203e-005
-0.000617013 -0.000708029 3.74303e-005
-0.000498284 -0.000540265 2.9249e-005
-0.000347111 -0.000418816 2.07413e-005
-0.000214539 -0.00031888 1.40283e-005
-0.000110245 -0.000242335 9.15036e-006
-3.29556e-005 -0.000194963 6.39596e-006
2.15278e-005 -0.000158831 4.82085e-006
0 0 0
0 0 0
-0.000549555 -0.000576011 1.73935e-005
-0.000734519 -0.00064914 2.37131e-005
-0.000785244 -0.000722615 2.57017e-005
-0.000757178 -0.000777993 2.72276e-005
-0.000649602 -0.000773897 2.6804e-005
-0.000480977 -0.000721676 2.44262e-005
-0.000283629 -0.0006568 2.15836e-005
-8.67351e-005 -0.000609602 2.05394e-005
8.39727e-005 -0.000543713 1.90579e-005
0 0 0
-0.000753689 -0.000966379 4.40529e-005
-0.000837829 -0.000873972 4.53311e-005
-0.000715024 -0.000741209 3.58606e-005
-0.000534831 -0.000629461 2.66767e-005
-0.000352414 -0.000512442 1.9208e-005
-0.000191283 -0.000410786 1.34813e-005
-5.95602e-005 -0.000342875 1.01165e-005
3.88482e-005 -0.00028452 7.96188e-006
0 0 0
0 0 0
-0.000530062 -0.000525288 1.92815e-005
-0.000750804 -0.00063473 2.40925e-005
-0.000874825 -0.000776873 2.58083e-005
-0.000924265 -0.000927225 2.90114e-005
-0.000867089 -0.00102816 3.11643e-005
-0.000692173 -0.00106298 3.10166e-005
-0.000433215 -0.00106098 3.0364e-005
-0.000128271 -0.00105744 3.16348e-005
0.000163131 -0.000982947 3.06499e-005
0 0 0
-0.000901328 -0.00104681 4.9985e-005
-0.00105887 -0.00102807 5.46676e-005
-0.000971417 -0.000977697 4.47875e-005
-0.000786855 -0.000912339 3.55299e-005
-0.000559096 -0.000804757 2.74828e-005
-0.000322024 -0.000690874 2.06643e-005
-0.000106157 -0.00060682 1.66195e-005
7.01955e-005 -0.000519066 1.36144e-005
0 0 0
0 0 0
-0.000453571 -0.000461727 2.14375e-005
-0.000679019 -0.00058405 2.45135e-005
-0.000865123 -0.000764766 2.48363e-005
-0.00101772 -0.0010202 2.95661e-005
-0.00105333 -0.00128107 3.46171e-005
-0.000920504 -0.00150113 3.86193e-005
-0.000607215 -0.00167387 4.22454e-005
-0.000155294 -0.00181576 4.81932e-005
0.0003326 -0.00177155 4.83245e-005
0 0 0
-0.000975904 -0.00103557 5.31052e-005
-0.00123021 -0.00112869 6.21833e-005
-0.0012283 -0.00120255 5.3151e-005
-0.00109526 -0.00124721 4.58322e-005
-0.000843975 -0.00121274 3.79859e-005
-0.000521895 -0.00113713 3.08969e-005
-0.000176449 -0.00106983 2.6724e-005
0.00013495 -0.000954049 2.29009e-005
0 0 0
0 0 0
-0.000348641 -0.000431401 2.35031e-005
-0.000518729 -0.000530418 2.43464e-005
-0.000719639 -0.000707972 2.31256e-005
-0.000944667 -0.00103584 2.76651e-005
-0.00110576 -0.00150059 3.67718e-005
-0.00106128 -0.00203189 4.72582e-005
-0.000731365 -0.00257889 5.96019e-005
-8.79089e-005 -0.00307559 7.38364e-005
0.000685893 -0.00315613 7.51353e-005
0 0 0
-0.000936292 -0.000941542 5.22398e-005
-0.00127322 -0.00113968 6.44431e-005
-0.00141214 -0.00136468 5.95971e-005
-0.00139298 -0.00158977 5.58186e-005
-0.00118342 -0.00174378 5.1062e-005
-0.000784498 -0.00182433 4.55588e-005
-0.000263305 -0.00187206 4.29712e-005
0.000276366 -0.00176048 3.84708e-005
0 0 0
0 0 0
-0.000268712 -0.000467492 2.52708e-005
-0.00034777 -0.00053425 2.55482e-005
-0.000461034 -0.00066412 2.1928e-005
-0.000669506 -0.00101834 2.58511e-005
-0.000887233 -0.00167943 3.80323e-005
-0.00095354 -0.0026661 5.86678e-005
-0.000611463 -0.00388074 8.4731e-005
0.000252371 -0.00510017 0.000112225
0.00142396 -0.00550938 0.000115534
0 0 0
-0.00077006 -0.000812009 4.58647e-005
-0.00113889 -0.00107178 6.01755e-005
-0.00140408 -0.00141368 5.99094e-005
-0.00156556 -0.00188164 6.30257e-005
-0.00147007 -0.00237409 6.45638e-005
-0.001053 -0.00283801 6.5796e-005
-0.000300328 -0.00323074 6.85753e-005
0.000588607 -0.00322589 6.38877e-005
0 0 0
0 0 0
-0.000275963 -0.000598515 2.93053e-005
-0.000254171 -0.000640088 2.86239e-005
-0.000238358 -0.000732732 2.59763e-005
-0.00026782 -0.00107545 3.00917e-005
-0.000379149 -0.00192461 4.69476e-005
-0.000367158 -0.00348834 7.86608e-005
5.48332e-005 -0.00575351 0.000122596
0.00126683 -0.0082555 0.000169526
0.00286436 -0.00930509 0.000174913
0 0 0
-0.00056402 -0.000756695 3.93772e-005
-0.000831882 -0.000985528 4.9733e-005
-0.00114121 -0.0013838 5.45658e-005
-0.00142609 -0.00207911 6.35416e-005
-0.00151837 -0.00308402 7.74588e-005
-0.00111893 -0.00427932 9.23461e-005
-0.000112296 -0.00545992 0.000108121
0.0012938 -0.00581517 0.000105344
0 0 0
0 0 0
-0.000343081 -0.000810755 3.43487e-005
-0.000284641 -0.000891744 3.6516e-005
-0.000109552 -0.000990603 3.45524e-005
8.48575e-005 -0.00139462 4.52208e-005
0.00039491 -0.00248035 7.26528e-005
0.000827824 -0.0047861 0.000117937
0.00180825 -0.00855134 0.000183717
0.0035259 -0.0129847 0.000253669
0.00558878 -0.0151175 0.000264934
0 0 0
-0.000428941 -0.000840234 3.70971e-005
-0.000534645 -0.00102565 4.45825e-005
-0.000669135 -0.00138566 4.78677e-005
-0.000922633 -0.00228023 6.36216e-005
-0.0010254 -0.00391651 9.09094e-005
-0.000633207 -0.00631856 0.000128778
0.000772488 -0.00900406 0.000168462
0.00277207 -0.0101491 0.000170455
0 0 0
0 0 0
-0.000478906 -0.00114031 4.38782e-005
-0.000334856 -0.00128155 4.68178e-005
-7.00935e-005 -0.00152312 5.034e-005
0.000504237 -0.00215927 7.12432e-005
0.00140164 -0.00374358 0.000117326
0.00301337 -0.0071459 0.000191618
0.00514804 -0.0128518 0.00028212
0.00803154 -0.0199189 0.000387045
0.0101192 -0.0232491 0.000392423
0 0 0
-0.000469564 -0.00111912 4.35112e-005
-0.000370423 -0.00128362 4.7715e-005
-0.000264549 -0.00166014 5.39962e-005
-9.10539e-005 -0.00273857 7.52e-005
0.000146328 -0.00518086 0.000119185
0.00109457 -0.00933908 0.000186062
0.00307143 -0.0144221 0.000259697
0.00580716 -0.017019 0.000274529
0 0 0
0 0 0
-0.000596438 -0.00155655 5.20694e-005
-0.000454858 -0.00191319 6.43166e-005
0.000118555 -0.00241697 7.31981e-005
0.00107979 -0.00368034 0.000109659
0.0032622 -0.00636041 0.000193545
0.00656936 -0.0113962 0.000307227
0.0112536 -0.0196867 0.000456678
0.0154083 -0.0293739 0.000584751
0.017197 -0.0338527 0.000571987
0 0 0
-0.000571376 -0.00153684 5.14386e-005
-0.000416152 -0.00187266 6.32435e-005
0.000119717 -0.00240253 7.34847e-005
0.000874131 -0.00394769 0.000111394
0.00242591 -0.00756988 0.000185015
0.00465917 -0.0140898 0.000286264
0.00820575 -0.0225703 0.000410937
0.0111134 -0.026825 0.000426332
0 0 0
0 0 0
-0.000840652 -0.00223344 6.9195e-005
-0.000405753 -0.00282132 8.38345e-005
0.000387082 -0.00403248 0.00011049
0.00262072 -0.00657873 0.000181446
0.00646514 -0.01131 0.000306566
0.013297 -0.0191005 0.000519173
0.0206573 -0.0296128 0.000719674
0.0267635 -0.0417524 0.00088257
0.0262581 -0.0458799 0.000780295
0 0 0
-0.000829201 -0.00222867 6.90434e-005
-0.000368086 -0.00279206 8.32813e-005
0.000454087 -0.00396092 0.0001103
0.00263953 -0.00662074 0.000184297
0.00608704 -0.0121891 0.000304639
0.0117012 -0.0220257 0.000484274
0.0169821 -0.033911 0.000644484
0.0198865 -0.0397912 0.000647784
0 0 0
0 0 0
-0.000910046 -0.00305352 8.18827e-005
-0.000471622 -0.00445875 0.000121179
0.00164721 -0.00691477 0.000175571
0.0054141 -0.0121014 0.000296316
0.0136743 -0.0207011 0.000543319
0.023905 -0.0311273 0.000826048
0.0353463 -0.043629 0.00113802
0.0406389 -0.0552387 0.00122527
0.037122 -0.0591486 0.0010201
0 0 0
-0.000910065 -0.00305424 8.18621e-005
-0.000463286 -0.00445506 0.000121127
0.00170272 -0.00685926 0.00017587
0.00553388 -0.0120062 0.000299838
0.0136363 -0.0212197 0.000548559
0.0227911 -0.034035 0.000797102
0.0312815 -0.0491557 0.00101776
0.0309126 -0.0539974 0.000895507
0 0 0
0 0 0
-0.00137368 -0.00462948 0.000118607
0.000408527 -0.0070898 0.000172502
0.00372419 -0.012666 0.000288774
0.0131636 -0.0229993 0.000563219
0.0256092 -0.0360345 0.000897009
0.0421969 -0.0493739 0.00135994
0.0525749 -0.058434 0.00158213
0.056677 -0.0700171 0.00162505
0.0488742 -0.0728245 0.00126679
0 0 0
-0.00137333 -0.00462857 0.000118557
0.000404164 -0.00709355 0.000172521
0.00373183 -0.0126576 0.000288829
0.0132801 -0.0228865 0.000567013
0.0257989 -0.0361989 0.000910261
0.0415359 -0.0519546 0.00133931
0.0482075 -0.0648576 0.00142497
0.0440131 -0.0694506 0.00118102
0 0 0
0 0 0
-0.000783077 -0.00639003 0.000140305
0.00119427 -0.0127503 0.000279209
0.0116189 -0.0245974 0.000570732
0.0263578 -0.0421341 0.000979291
0.0494383 -0.0608291 0.00160756
0.0628225 -0.0677136 0.00186428
0.0719684 -0.0750163 0.00209251
0.0734303 -0.0848131 0.0020324
0.0609339 -0.0867913 0.00151764
0 0 0
-0.000783175 -0.0063904 0.00014033
0.00119637 -0.0127485 0.000279185
0.011607 -0.0246051 0.000570504
0.0263919 -0.0420964 0.000980046
0.0497192 -0.0607593 0.00162527
0.0625075 -0.0695482 0.00186155
0.0674764 -0.0817262 0.00190351
0.0577551 -0.0849046 0.00146549
0 0 0
0 0 0
-0.00162863 -0.0110046 0.000238319
0.00845399 -0.024189 0.000532922
0.0248314 -0.0483601 0.00104224
0.0588095 -0.0766099 0.00197951
0.0746213 -0.0831424 0.00219254
0.0852606 -0.0886268 0.00243576
0.0913477 -0.0922168 0.00258606
0.0900978 -0.0993689 0.00244831
0.0736208 -0.101383 0.00178546
0 0 0
-0.00162852 -0.0110045 0.000238307
0.00845332 -0.0241897 0.000532922
0.024837 -0.0483568 0.00104238
0.0587807 -0.0766191 0.00197789
0.0748077 -0.0830924 0.00220277
0.0854416 -0.0893919 0.00246069
0.0867502 -0.097793 0.00237562
0.0720104 -0.100578 0.00176105
0 0 0
0 0 0
0.004798 -0.0167219 0.00034997
0.018616 -0.0522825 0.00102453
0.0710604 -0.0988027 0.00250855
0.0898509 -0.1034 0.0026386
0.100761 -0.10816 0.00285753
0.106096 -0.110366 0.00295645
0.109144 -0.111631 0.00304498
0.107393 -0.114339 0.0029205
0.0876786 -0.116099 0.00207507
0 0 0
0.00479799 -0.0167219 0.000349975
0.0186163 -0.0522823 0.00102454
0.0710585 -0.0988035 0.00250847
0.0898615 -0.103395 0.00263906
0.100723 -0.108197 0.00285587
0.106488 -0.110472 0.00298651
0.106104 -0.113769 0.00289076
0.087126 -0.11586 0.00206646
0 0 0
0 0 0
0.00470691 -0.0416352 0.000761811
0.0885054 -0.129244 0.00328355
0.109803 -0.130639 0.00321208
0.119108 -0.133183 0.00336383
0.122733 -0.13421 0.00342663
0.124163 -0.134723 0.00346136
0.124633 -0.135007 0.00347653
0.124541 -0.134519 0.00344144
0.111469 -0.130506 0.00258579
0 0 0
0.00470692 -0.0416352 0.00076181
0.0885054 -0.129244 0.00328355
0.109804 -0.130639 0.00321208
0.119106 -0.133184 0.00336379
0.122743 -0.1342 0.00342666
0.124092 -0.134759 0.00345938
0.124341 -0.134406 0.00343326
0.111401 -0.13047 0.00258368
0 0 0
0.5 0 0
0.5 0 0
0.5 0 0
0.5 0 0
0.5 0 0
0.5 0 0
0.5 0 0
0.5 0 0
0.5 0 0
0.5 0 0
0.5 0 0
0.5 0 0
0.5 0 0
0.5 0 0
0.5 0 0
0.5 0 0
0.5 0 0
0.5 0 0
0.5 0 0
0.5 0 0
0 0 0
0 0 0
0 0 0
0 0 0
0 0 0
0 0 0
0 0 0
0 0 0
0 0 0
0 0 0
0 0 0
0 0 0
0 0 0
0 0 0
0 0 0
0 0 0
0 0 0
0 0 0
0 0 0
0 0 0
0 0 0
-0.000459753 -0.000524588 2.77984e-006
-0.000550169 -0.000514682 3.84063e-006
-0.000516003 -0.000471663 4.09345e-006
-0.000425904 -0.00042948 3.89211e-006
-0.000314977 -0.000367885 3.41461e-006
-0.000204282 -0.00029875 2.78248e-006
-0.000108254 -0.000241738 2.195e-006
-3.24657e-005 -0.000205064 1.85997e-006
2.51045e-005 -0.000170145 1.49803e-006
0 0 0
-0.000434992 -0.000642892 5.81876e-006
-0.000436341 -0.000522392 5.00781e-006
-0.000340177 -0.000360011 3.66455e-006
-0.000225809 -0.000256426 2.55746e-006
-0.000131181 -0.000187055 1.65808e-006
-6.39075e-005 -0.000139591 1.05499e-006
-1.77925e-005 -0.000110981 7.26065e-007
1.36779e-005 -8.79944e-005 5.12774e-007
0 0 0
0 0 0
-0.000518944 -0.000594314 3.27215e-006
-0.000653714 -0.000623129 4.59847e-006
-0.000649055 -0.000629416 4.99906e-006
-0.000574492 -0.00061605 4.97402e-006
-0.000456428 -0.000559657 4.61208e-006
-0.000315275 -0.000478363 3.91287e-006
-0.00017671 -0.000403112 3.17998e-006
-5.39693e-005 -0.000352963 2.77037e-006
4.34688e-005 -0.000305047 2.47263e-006
0 0 0
-0.000586278 -0.000835948 7.76167e-006
-0.000619642 -0.000709674 7.43015e-006
-0.000499735 -0.000541412 5.75717e-006
-0.00034797 -0.000419752 4.06295e-006
-0.000215084 -0.000319603 2.74196e-006
-0.000110531 -0.000242918 1.78654e-006
-3.30339e-005 -0.000195494 1.25287e-006
2.1605e-005 -0.00015935 9.51788e-007
0 0 0
0 0 0
-0.000550926 -0.00057765 3.4085e-006
-0.000735587 -0.000649785 4.45321e-006
-0.000785964 -0.000723116 4.73278e-006
-0.000757837 -0.000778672 5.02371e-006
-0.000650195 -0.000774792 4.98363e-006
-0.000481411 -0.000722822 4.59478e-006
-0.000283782 -0.000658242 4.12865e-006
-8.65023e-005 -0.000611429 4.02069e-006
8.45903e-005 -0.000545847 3.80085e-006
0 0 0
-0.000757272 -0.00097002 8.77873e-006
-0.000840593 -0.000875723 8.87337e-006
-0.000716523 -0.000742445 6.90222e-006
-0.00053578 -0.000630503 5.09818e-006
-0.00035302 -0.000513312 3.66326e-006
-0.000191591 -0.000411568 2.57672e-006
-5.96096e-005 -0.000343655 1.94932e-006
3.90039e-005 -0.000285308 1.54934e-006
0 0 0
0 0 0
-0.000531734 -0.000527506 3.87189e-006
-0.000751885 -0.000635623 4.56272e-006
-0.000875356 -0.000777376 4.70867e-006
-0.000924597 -0.000927823 5.25609e-006
-0.000867302 -0.00102904 5.6739e-006
-0.000692197 -0.00106427 5.71108e-006
-0.000432943 -0.0010628 5.6992e-006
-0.000127562 -0.00105994 6.08803e-006
0.00016422 -0.000985983 6.0068e-006
0 0 0
-0.000905317 -0.00105088 9.96034e-006
-0.00106178 -0.00103009 1.06396e-005
-0.000972982 -0.000979155 8.51537e-006
-0.000787856 -0.000913569 6.68605e-006
-0.000559707 -0.00080583 5.15213e-006
-0.000322286 -0.000691913 3.88286e-006
-0.000106112 -0.000607936 3.15512e-006
7.04922e-005 -0.000520255 2.61426e-006
0 0 0
0 0 0
-0.000455595 -0.000464592 4.42473e-006
-0.000680264 -0.000585508 4.75349e-006
-0.000865556 -0.000765525 4.5482e-006
-0.00101774 -0.00102091 5.30859e-006
-0.00105303 -0.00128206 6.20867e-006
-0.000919886 -0.00150269 7.00308e-006
-0.000606174 -0.00167621 7.81351e-006
-0.000153757 -0.0018191 9.12852e-006
0.00033445 -0.00177566 9.29134e-006
0 0 0
-0.000980251 -0.00103998 1.06376e-005
-0.00123332 -0.00113108 1.20976e-005
-0.00122996 -0.00120426 1.00306e-005
-0.0010963 -0.00124867 8.53221e-006
-0.000844507 -0.00121405 7.02075e-006
-0.000522009 -0.00113849 5.71906e-006
-0.000176182 -0.00107139 5.0002e-006
0.000135496 -0.000955774 4.33389e-006
0 0 0
0 0 0
-0.000350841 -0.000434687 4.95344e-006
-0.000520145 -0.00053254 4.86761e-006
-0.000720076 -0.000709304 4.32995e-006
-0.000944335 -0.001037 4.98184e-006
-0.00110481 -0.00150206 6.57354e-006
-0.00105968 -0.00203405 8.52605e-006
-0.00072915 -0.00258205 1.09448e-005
-8.51036e-005 -0.00307995 1.37972e-005
0.000688755 -0.00316133 1.41614e-005
0 0 0
-0.000940779 -0.000946189 1.05728e-005
-0.00127642 -0.00114251 1.25892e-005
-0.00141393 -0.00136676 1.12375e-005
-0.00139399 -0.00159157 1.03295e-005
-0.00118377 -0.00174549 9.35571e-006
-0.000784282 -0.00182615 8.34159e-006
-0.000262627 -0.0018742 7.93968e-006
0.000277325 -0.00176287 7.17155e-006
0 0 0
0 0 0
-0.00027082 -0.000470814 5.32682e-006
-0.000349367 -0.000536802 5.2262e-006
-0.000461533 -0.000666108 4.25948e-006
-0.000668922 -0.00102029 4.79322e-006
-0.000885475 -0.0016818 6.91128e-006
-0.000950723 -0.00266929 1.06815e-005
-0.000607684 -0.00388499 1.55455e-005
0.000256671 -0.00510551 2.07128e-005
0.00142796 -0.00551541 2.13525e-005
0 0 0
-0.00077417 -0.000816622 9.38401e-006
-0.00114203 -0.00107509 1.18629e-005
-0.00140584 -0.00141625 1.13369e-005
-0.00156644 -0.001884 1.16554e-005