# vtk DataFile Version 3.0
KG NN0
ASCII
DATASET STRUCTURED_POINTS
DIMENSIONS 15 15 15
ORIGIN 0 0 0
SPACING 1 1 1
POINT_DATA 3375
VECTORS Vectors0 float
0 0 0
0 0 0
0 0 0
0 0 0
0 0 0
0 0 0
0 0 0
0 0 0
0 0 0
0 0 0
0 0 0
0 0 0
0 0 0
0 0 0
0 0 0
0 0 0
0 0 0
0 0 0
0 0 0
0 0 0
0 0 0
0 0 0
0 0 0
0 0 0
0 0 0
0 0 0
0 0 0
0 0 0
0 0 0
0 0 0
0 0 0
0 0 0
0 0 0
0 0 0
0 0 0
0 0 0
0 0 0
0 0 0
0 0 0
0 0 0
0 0 0
0 0 0
0 0 0
0 0 0
0 0 0
0 0 0
0 0 0
0 0 0
0 0 0
0 0 0
0 0 0
0 0 0
0 0 0
0 0 0
0 0 0
0 0 0
0 0 0
0 0 0
0 0 0
0 0 0
0 0 0
0 0 0
0 0 0
0 0 0
0 0 0
0 0 0
0 0 0
0 0 0
0 0 0
0 0 0
0 0 0
0 0 0
0 0 0
0 0 0
0 0 0
0 0 0
0 0 0
0 0 0
0 0 0
0 0 0
0 0 0
0 0 0
0 0 0
0 0 0
0 0 0
0 0 0
0 0 0
0 0 0
0 0 0
0 0 0
0 0 0
0 0 0
0 0 0
0 0 0
0 0 0
0 0 0
0 0 0
0 0 0
0 0 0
0 0 0
0 0 0
0 0 0
0 0 0
0 0 0
0 0 0
0 0 0
0 0 0
0 0 0
0 0 0
0 0 0
0 0 0
0 0 0
0 0 0
0 0 0
0 0 0
0 0 0
0 0 0
0 0 0
0 0 0
0 0 0
0 0 0
0 0 0
0 0 0
0 0 0
0 0 0
0 0 0
0 0 0
0 0 0
0 0 0
0 0 0
0 0 0
0 0 0
0 0 0
0 0 0
0 0 0
0 0 0
0 0 0
0 0 0
0 0 0
0 0 0
0 0 0
0 0 0
0 0 0
0 0 0
0 0 0
0 0 0
0 0 0
0 0 0
0 0 0
0 0 0
0 0 0
0 0 0
0 0 0
0 0 0
0 0 0
0 0 0
0 0 0
0 0 0
0 0 0
0 0 0
0 0 0
0 0 0
0 0 0
0 0 0
0 0 0
0 0 0
0 0 0
0 0 0
0 0 0
0 0 0
0 0 0
0 0 0
0 0 0
0 0 0
0 0 0
0 0 0
0 0 0
0 0 0
0 0 0
0 0 0
0 0 0
0 0 0
0 0 0
0 0 0
0 0 0
0 0 0
0 0 0
0 0 0
0 0 0
0 0 0
0 0 0
0 0 0
0 0 0
0 0 0
0 0 0
0 0 0
0 0 0
0 0 0
0 0 0
0 0 0
0 0 0
0 0 0
0 0 0
0 0 0
0 0 0
0 0 0
0 0 0
0 0 0
0 0 0
0 0 0
0.5 0 0
0.5 0 0
0.5 0 0
0.5 0 0
0.5 0 0
0.5 0 0
0.5 0 0
0.5 0 0
0.5 0 0
0.5 0 0
0.5 0 0
0.5 0 0
0.5 0 0
0.5 0 0
0.5 0 0
0 0 0
0 0 0
0 0 0
0 0 0
0 0 0
0 0 0
0 0 0
0 0 0
0 0 0
0 0 0
0 0 0
0 0 0
0 0 0
0 0 0
0 0 0
0 0 0
1.27596e-006 8.64562e-007 5.56419e-008
-1.24821e-006 -8.05599e-007 1.49169e-007
5.92136e-006 8.28713e-007 4.96943e-007
-7.38368e-006 1.42317e-005 -4.11159e-006
1.30117e-006 1.64094e-006 3.34232e-005
6.46769e-007 -2.79313e-007 -1.17724e-006
0 0 0
nan nan nan
nan nan nan
nan nan nan
nan nan nan
nan nan nan
nan nan nan
0 0 0
0 0 0
2.00932e-005 0.000137799 4.92252e-008
2.43756e-005 2.83846e-005 1.79645e-007
-1.72275e-005 1.01992e-006 -2.59422e-006
4.8721e-005 -4.55552e-005 -2.56897e-006
1.05507e-006 -2.20922e-007 -1.52674e-005
-2.81103e-007 1.45022e-007 9.40851e-007
0 0 0
nan nan nan
nan nan nan
nan nan nan
nan nan nan
nan nan nan
nan nan nan
0 0 0
0 0 0
-3.42603e-005 1.02479e-005 8.67822e-008
1.22611e-005 1.39605e-006 -2.18187e-007
3.5879e-006 -8.23137e-006 3.24835e-006
1.96044e-005 3.97267e-006 0.000106684
3.42298e-006 -3.31988e-006 2.57018e-007
9.92885e-007 -1.48897e-006 -4.75758e-006
0 0 0
nan nan nan
nan nan nan
nan nan nan
nan nan nan
nan nan nan
nan nan nan
0 0 0
0 0 0
1.16016e-006 1.44135e-005 2.51004e-007
3.32629e-007 4.19739e-008 -0.000342206
-3.21176e-006 -6.72578e-008 -1.52903e-007
-1.18748e-005 -5.55982e-007 7.22889e-006
3.16102e-006 -2.18887e-006 1.69729e-005
-2.84607e-007 -2.78677e-007 8.25372e-008
0 0 0
nan nan nan
nan nan nan
nan nan nan
nan nan nan
nan nan nan
nan nan nan
0 0 0
0 0 0
-4.52782e-006 -1.02184e-007 -4.47636e-006
-1.63009e-007 2.92615e-008 -3.99905e-007
3.33502e-006 1.39646e-008 -3.98988e-007
3.64639e-007 -5.92144e-007 1.80291e-007
3.0136e-006 -4.67354e-007 -1.90883e-007
-2.53903e-007 -1.25484e-007 -1.19955e-008
0 0 0
nan nan nan
nan nan nan
nan nan nan
nan nan nan
nan nan nan
nan nan nan
0 0 0
0 0 0
-9.59181e-007 2.01159e-007 -1.48716e-008
-1.23945e-007 -4.30425e-005 2.21959e-005
3.12262e-007 5.95962e-007 -1.88006e-007
1.65622e-008 -1.27103e-007 1.56669e-006
1.27229e-006 1.49619e-006 6.50772e-010
-1.20415e-007 5.05597e-008 -6.23344e-007
0 0 0
nan nan nan
nan nan nan
nan nan nan
nan nan nan
nan nan nan
nan nan nan
0 0 0
0 0 0
-1.67435e-007 -1.88199e-007 -5.74419e-006
-1.26167e-006 -1.6257e-006 -2.6346e-008
-3.21419e-008 -1.11753e-006 -3.9768e-007
-1.88972e-005 -1.94073e-005 3.84805e-007
1.82874e-007 -3.10654e-005 9.53992e-008
1.30811e-005 -1.37531e-005 -2.35959e-007
0 0 0
nan nan nan
nan nan nan
nan nan nan
nan nan nan
nan nan nan
nan nan nan
0 0 0
0 0 0
7.27817e-007 6.76594e-007 3.89927e-008
-5.42134e-007 -1.07191e-006 6.99858e-009
-2.35155e-006 -3.32437e-006 -6.38755e-009
1.66947e-005 -8.51232e-007 7.67422e-008
-3.81694e-007 1.13945e-008 2.96376e-006
-1.58642e-005 -6.57375e-007 4.64701e-008
0 0 0
nan nan nan
nan nan nan
nan nan nan
nan nan nan
nan nan nan
nan nan nan
0 0 0
0 0 0
2.85309e-007 -1.86463e-007 1.73265e-008
-1.62332e-006 -1.3154e-006 4.08822e-009
-2.35948e-006 -2.06688e-006 -6.94167e-008
5.73518e-008 -3.30608e-006 2.33024e-006
2.33099e-006 2.70794e-005 4.78801e-008
5.302e-006 -4.5961e-006 5.24115e-008
0 0 0
nan nan nan
nan nan nan
nan nan nan
nan nan nan
nan nan nan
nan nan nan
0 0 0
0 0 0
3.99089e-007 -1.19683e-007 3.35767e-008
-2.00613e-007 8.13444e-007 -4.19014e-008
3.61666e-007 3.82493e-007 3.90325e-008
3.6127e-007 1.17612e-006 -8.63577e-008
-2.49589e-007 -1.1903e-007 6.74421e-008
1.83573e-006 7.58279e-007 -5.48364e-009
0 0 0
nan nan nan
nan nan nan
nan nan nan
nan nan nan
nan nan nan
nan nan nan
0 0 0
0 0 0
1.50963e-007 -1.40301e-007 4.22903e-009
1.76809e-006 2.59877e-007 5.02069e-008
-1.2249e-007 -2.34008e-007 -1.47449e-007
-1.74379e-007 1.3928e-007 -1.17849e-005
2.05236e-007 -6.92918e-007 -1.62036e-007
-1.6548e-006 -1.03246e-007 -9.60598e-008
0 0 0
nan nan nan
nan nan nan
nan nan nan
nan nan nan
nan nan nan
nan nan nan
0 0 0
0 0 0
3.048e-007 1.51091e-007 -7.04221e-009
2.74461e-005 2.75137e-005 -9.05342
1.2688e-005 6.75329e-005 -1.06689
-2.55822e-005 5.40485e-005 0.0129449
-1.29377e-005 1.59191e-005 1.28004
-1.85552e-006 1.54195e-006 -0.114927
0 0 0
nan nan nan
nan nan nan
nan nan nan
nan nan nan
nan nan nan
nan nan nan
0 0 0
0 0 0
3.56328e-007 1.54046e-007 1.01558e-008
5.67701e-005 1.67938e-006 -0.238928
2.58027e-005 4.47213e-006 -2.81559e-005
-5.17706e-005 8.96089e-006 -0.000115505
-2.56494e-005 3.95116e-006 -6.82766e-005
-5.0055e-006 1.28356e-006 -0.0358176
0 0 0
nan nan nan
nan nan nan
nan nan nan
nan nan nan
nan nan nan
nan nan nan
0 0 0
0.5 0 0
3.0356e-007 1.8397e-007 3.65439e-009
3.36171e-006 1.05603e-007 -0.00900084
5.82553e-007 -7.04277e-005 0.000592647
-8.2477e-007 -2.23323e-005 -0.0106322
-6.15395e-007 -1.57052e-005 -1.90884e-005
-2.51866e-006 4.46762e-007 -0.0057113
0.5 0 0
nan nan nan
nan nan nan
nan nan nan
nan nan nan
nan nan nan
nan nan nan
0.5 0 0
0 0 0
0 0 0
0 0 0
0 0 0
0 0 0
0 0 0
0 0 0
0 0 0
0 0 0
0 0 0
0 0 0
0 0 0
0 0 0
0 0 0
0 0 0
0 0 0
8.64922e-007 2.31191e-007 2.23135e-008
5.61748e-006 5.00229e-006 4.22437e-008
1.01234e-005 5.06166e-006 5.95891e-006
3.41126e-005 4.39505e-005 -1.64567e-006
1.14892e-006 5.7578e-006 3.76262e-005
1.68358e-005 -7.28985e-006 -4.55977e-006
0 0 0
nan nan nan
nan nan nan
nan nan nan
nan nan nan
nan nan nan
nan nan nan
0 0 0
0 0 0
4.30167e-006 2.44933e-005 3.10431e-008
-6.01056e-006 1.92773e-005 -2.01877e-006
-0.000144609 -0.00014058 4.605e-006
1.17422e-005 9.84127e-005 -7.39092e-007
7.77704e-005 -3.46885e-005 -5.2079e-005
-8.11634e-006 -4.68648e-006 -2.28377e-007
0 0 0
nan nan nan
nan nan nan
nan nan nan
nan nan nan
nan nan nan
nan nan nan
0 0 0
0 0 0
6.81191e-005 0.000106153 6.19597e-005
-3.30045e-005 0.000187491 8.85019e-006
-0.000308365 9.74969e-005 -1.24695e-005
-1.77176e-005 -2.65969e-005 3.87608e-006
0.000236232 -5.73373e-005 2.64774e-007
2.03434e-005 -1.85028e-005 1.0521e-007
0 0 0
nan nan nan
nan nan nan
nan nan nan
nan nan nan
nan nan nan
nan nan nan
0 0 0
0 0 0
0.00018507 -1.31228e-005 1.61153e-006
-8.48413e-006 7.79904e-006 4.09292e-007
-0.000185041 1.72302e-005 1.83244e-006
1.41185e-005 -0.000102413 -7.58756e-007
2.4063e-006 -7.52165e-007 7.6457e-007
-1.72186e-005 3.70723e-006 -4.80084e-007
0 0 0
nan nan nan
nan nan nan
nan nan nan
nan nan nan
nan nan nan
nan nan nan
0 0 0
0 0 0
-2.0016e-005 -2.58925e-005 -3.02906e-007
3.37377e-006 -0.000163987 9.13102e-006
1.14237e-005 -2.41956e-005 8.1522e-009
-7.24125e-007 6.47762e-006 -4.29294e-007
3.59221e-006 2.98428e-005 -1.91617e-007
1.89026e-007 9.72687e-007 3.71452e-010
0 0 0
nan nan nan
nan nan nan
nan nan nan
nan nan nan
nan nan nan
nan nan nan
0 0 0
0 0 0
-4.62869e-005 4.18698e-006 2.36472e-008
-5.90578e-006 -2.73338e-006 -2.57547e-007
3.98777e-005 3.08664e-007 2.46635e-007
-9.44155e-007 7.33378e-007 5.60406e-008
4.96438e-006 -4.41254e-007 -2.42333e-007
4.21082e-008 -1.55755e-007 -9.39844e-008
0 0 0
nan nan nan
nan nan nan
nan nan nan
nan nan nan
nan nan nan
nan nan nan
0 0 0
0 0 0
3.36852e-007 4.03184e-008 -3.03684e-008
5.4358e-006 -2.22792e-005 3.6162e-007
-1.12144e-006 -4.17888e-007 9.95799e-008
-4.94904e-006 -7.0554e-006 -4.97265e-008
1.04755e-006 -6.20957e-006 3.63408e-008
1.12395e-006 -2.29119e-006 -3.7758e-008
0 0 0
nan nan nan
nan nan nan
nan nan nan
nan nan nan
nan nan nan
nan nan nan
0 0 0
0 0 0
9.22836e-009 -1.095e-005 2.27464e-008
-1.34019e-007 -3.45231e-007 9.55553e-008
-1.02028e-005 -1.14257e-005 -2.80089e-007
3.17695e-006 -6.34575e-006 -4.82266e-008
-1.35135e-006 1.36471e-006 -1.52117e-005
-3.03741e-006 3.08329e-008 -2.70091e-007
0 0 0
nan nan nan
nan nan nan
nan nan nan
nan nan nan
nan nan nan
nan nan nan
0 0 0
0 0 0
7.6297e-008 2.95196e-008 7.33709e-009
-1.82856e-007 -5.02937e-008 2.05399e-007
3.55764e-006 -3.50587e-007 -2.132e-007
-2.55749e-007 -1.37587e-006 -8.63697e-008
-3.5481e-006 3.99318e-006 -1.12313e-007
1.02943e-006 -8.99536e-007 -1.07714e-007
0 0 0
nan nan nan
nan nan nan
nan nan nan
nan nan nan
nan nan nan
nan nan nan
0 0 0
0 0 0
2.67788e-008 -5.46153e-008 -2.09871e-008
1.79614e-007 2.29573e-007 1.5665e-007
2.64833e-006 2.76082e-006 -3.44452e-007
-1.51424e-007 1.22949e-005 -7.42322e-007
-2.40232e-006 3.20288e-006 -1.14763e-006
6.07315e-007 3.10052e-007 -1.19543e-007
0 0 0
nan nan nan
nan nan nan
nan nan nan
nan nan nan
nan nan nan
nan nan nan
0 0 0
0 0 0
22.6344 22.6344 1.63359e-008
2.31087 6.8382 3.09323e-008
4.49508 -3.01751 3.40342e-007
0.811143 0.456012 -9.37928e-006
-0.0633341 -0.838575 3.48162e-007
3.19429 -3.13705 -4.1203e-008
0 0 0
nan nan nan
nan nan nan
nan nan nan
nan nan nan
nan nan nan
nan nan nan
0 0 0
0 0 0
4.85261 0.324865 -1.15645e-007
-0.473669 -0.228664 -0.238641
-4.69026 0.152823 -0.298263
-0.0194016 -4.58695e-005 0.00812397
0.0563023 -0.0122149 1.10256
0.493378 -0.0055303 -2.23906
0 0 0
nan nan nan
nan nan nan
nan nan nan
nan nan nan
nan nan nan
nan nan nan
0 0 0
0 0 0
0.476642 0.0090304 -4.35881e-008
-0.00103303 -4.53539 -0.0151027
-0.465021 -1.52113 8.26456e-005
0.000135902 0.0220552 -1.26295e-005
0.036935 0.802368 -0.000395362
0.000894678 -0.0628431 -0.13
0 0 0
nan nan nan
nan nan nan
nan nan nan
nan nan nan
nan nan nan
nan nan nan
0 0 0
0.5 0 0
0.0180479 6.209e-008 5.05368e-009
0.00062239 0.22852 -0.00546518
-0.028562 3.62691e-005 1.42368e-005
-0.000618346 -3.01787e-005 -0.00642653
0.0219729 -0.00071106 8.14258e-005
-4.00437e-006 0.00493967 -0.00347574
0.5 0 0
nan nan nan
nan nan nan
nan nan nan
nan nan nan
nan nan nan
nan nan nan
0.5 0 0
0 0 0
0 0 0
0 0 0
0 0 0
0 0 0
0 0 0
0 0 0
0 0 0
0 0 0
0 0 0
0 0 0
0 0 0
0 0 0
0 0 0
0 0 0
0 0 0
8.21158e-007 1.9899e-007 5.00853e-009
-8.16952e-006 3.84204e-007 1.76132e-007
1.59506e-006 9.01642e-007 5.45563e-006
8.08468e-005 7.2125e-005 2.96053e-006
1.31675e-005 0.000113997 -3.54429e-005
-4.55387e-005 4.47215e-005 -4.15784e-006
0 0 0
nan nan nan
nan nan nan
nan nan nan
nan nan nan
nan nan nan
nan nan nan
0 0 0
0 0 0
1.39053e-006 1.97633e-005 3.08194e-008
-1.13143e-005 1.10908e-005 -1.75126e-007
-1.18017e-005 -1.78963e-005 2.58513e-006
-5.06192e-005 -9.1442e-006 1.57719e-006
-6.60054e-007 3.40801e-005 -3.52849e-005
5.23246e-005 4.69639e-006 -7.05383e-007
0 0 0
nan nan nan
nan nan nan
nan nan nan
nan nan nan
nan nan nan
nan nan nan
0 0 0
0 0 0
-2.6012e-005 1.1465e-005 1.16941e-007
-3.04105e-005 5.48489e-006 1.36752e-008
-5.24575e-006 2.98667e-007 -2.3992e-006
2.68038e-006 -5.17376e-007 -0.000104728
1.93051e-007 -9.77594e-005 1.27594e-007
3.48952e-006 -3.18465e-006 4.82321e-006
0 0 0
nan nan nan
nan nan nan
nan nan nan
nan nan nan
nan nan nan
nan nan nan
0 0 0
0 0 0
3.16599e-006 -1.6841e-005 1.94465e-007
-1.11531e-006 3.44024e-007 0.000364909
-6.45481e-006 1.16819e-005 4.74818e-008
-1.71765e-006 4.04453e-006 -7.46043e-006
5.00461e-007 -3.29745e-008 -1.67965e-005
2.00572e-006 1.35328e-008 8.60982e-008
0 0 0
nan nan nan
nan nan nan
nan nan nan
nan nan nan
nan nan nan
nan nan nan
0 0 0
0 0 0
4.17031e-006 -2.05687e-006 4.19548e-006
-3.18088e-007 -7.70559e-007 3.0457e-007
-5.59849e-006 -1.10906e-006 -1.2397e-007
5.81492e-008 2.6924e-007 -1.77017e-007
9.40867e-007 -1.42343e-006 -1.11667e-007
3.5788e-007 -5.72963e-008 1.86045e-008
0 0 0
nan nan nan
nan nan nan
nan nan nan
nan nan nan
nan nan nan
nan nan nan
0 0 0
0 0 0
6.49753e-008 -1.53973e-007 -5.35564e-008
-3.59318e-007 -2.23375e-006 -2.21563e-005
-8.22374e-007 2.25852e-007 -2.69392e-007
1.85e-008 7.36299e-007 -1.57468e-006
-9.26914e-009 3.09571e-007 -1.14697e-008
1.58375e-007 -5.73772e-008 5.80969e-007
0 0 0
nan nan nan
nan nan nan
nan nan nan
nan nan nan
nan nan nan
nan nan nan
0 0 0
0 0 0
-3.83684e-009 -2.63039e-007 5.76734e-006
-9.62463e-008 -1.55523e-007 1.65406e-009
-3.93348e-007 -7.57008e-008 2.46799e-007
2.09529e-007 5.54597e-007 -2.86936e-007
1.86295e-007 -2.31648e-007 1.85856e-008
4.18897e-007 -8.12549e-007 7.0097e-008
0 0 0
nan nan nan
nan nan nan
nan nan nan
nan nan nan
nan nan nan
nan nan nan
0 0 0
0 0 0
1.55547e-007 6.35808e-008 -2.38322e-008
-8.96333e-008 -3.73697e-007 7.98129e-008
-8.79356e-007 -9.12944e-007 -3.22999e-008
2.13938e-007 -1.78219e-006 -2.87903e-008
9.70064e-007 -1.20364e-006 1.85712e-006
-3.62299e-008 -1.11342e-007 -4.8466e-008
0 0 0
nan nan nan
nan nan nan
nan nan nan
nan nan nan
nan nan nan
nan nan nan
0 0 0
0 0 0
9.58141e-008 1.09096e-008 -8.57154e-009
-3.19826e-007 1.64812e-007 1.48801e-009
2.84925e-007 -9.31631e-007 -1.00067e-008
-2.825e-007 -1.65671e-006 -1.67826e-006
-3.93556e-007 -1.74762e-006 -3.50919e-008
1.24615e-006 -1.2376e-006 -3.82185e-008
0 0 0
nan nan nan
nan nan nan
nan nan nan
nan nan nan
nan nan nan
nan nan nan
0 0 0
0 0 0
3.45257e-008 -5.27409e-008 3.78126e-008
-7.50374e-008 5.04522e-008 -1.6204e-008
2.26489e-006 2.75264e-006 7.35504e-008
-1.34639e-007 7.13569e-006 1.50161e-008
-2.14622e-006 2.8956e-006 1.70099e-007
7.39411e-007 1.9639e-007 -4.4829e-008
0 0 0
nan nan nan
nan nan nan
nan nan nan
nan nan nan
nan nan nan
nan nan nan
0 0 0
0 0 0
0.596737 0.596736 2.42348e-008
0.73667 0.8561 1.10062e-007
0.115075 0.115565 6.82654e-008
0.584534 0.289046 1.00867e-005
-1.10769 -2.26709 2.30885e-008
2.64948 -1.53052 -8.44049e-008
0 0 0
nan nan nan
nan nan nan
nan nan nan
nan nan nan
nan nan nan
nan nan nan
0 0 0
0 0 0
0.15029 0.0308107 1.55484e-008
0.0592807 -0.00888942 8.50104
-0.111144 -0.000612273 0.455418
-0.0259736 -1.45834e-006 0.00342855
1.1589 0.0468453 0.909714
-0.0331256 -0.111446 -3.99881
0 0 0
nan nan nan
nan nan nan
nan nan nan
nan nan nan
nan nan nan
nan nan nan
0 0 0
0 0 0
0.0294379 0.00548938 2.05469e-008
-0.000207313 -0.124661 0.205866
-0.0223923 -0.226541 -7.29527e-005
-0.000316545 0.0282424 -0.00018637
0.238907 1.14495 0.00033222
0.000521597 -1.12204 -0.209561
0 0 0
nan nan nan
nan nan nan
nan nan nan
nan nan nan
nan nan nan
nan nan nan
0 0 0
0.5 0 0
0.0109665 6.90948e-008 -7.65006e-010
1.01523e-005 0.00881964 -0.00204118
-0.0173082 -3.50201e-005 -0.000599948
6.82051e-005 8.772e-005 -0.00228716
0.0133216 -0.000582018 0.000135824
-7.83193e-005 0.111158 -0.00129126
0.5 0 0
nan nan nan
nan nan nan
nan nan nan
nan nan nan
nan nan nan
nan nan nan
0.5 0 0
0 0 0
0 0 0
0 0 0
0 0 0
0 0 0
0 0 0
0 0 0
0 0 0
0 0 0
0 0 0
0 0 0
0 0 0
0 0 0
0 0 0
0 0 0
0 0 0
7.93336e-007 2.14067e-007 -1.84561e-008
-6.55275e-006 4.50286e-007 -3.48979e-008
1.25866e-006 1.59157e-006 -1.0716e-006
9.44822e-005 6.9554e-005 4.93629e-007
1.46944e-005 0.000108887 -3.87987e-005
-6.14871e-005 4.28929e-005 2.34198e-007
0 0 0
nan nan nan
nan nan nan
nan nan nan
nan nan nan
nan nan nan
nan nan nan
0 0 0
0 0 0
2.9013e-006 2.3443e-005 2.95912e-008
-1.06033e-005 1.48241e-005 -2.64715e-008
-5.84669e-006 -6.91502e-006 -3.11249e-008
-5.06528e-005 -1.45433e-006 -4.67257e-007
7.97091e-007 7.70374e-006 1.30301e-006
5.19607e-005 4.80518e-006 1.31018e-006
0 0 0
nan nan nan
nan nan nan
nan nan nan
nan nan nan
nan nan nan
nan nan nan
0 0 0
0 0 0
-1.78672e-005 1.97359e-005 1.16805e-007
-2.90926e-005 1.56175e-005 6.26395e-007
-1.79016e-005 8.14309e-006 7.35211e-007
-3.67124e-007 -7.23655e-007 -2.32543e-006
3.71541e-006 -9.54868e-005 1.7294e-007
8.79491e-007 2.88938e-009 -3.67392e-008
0 0 0
nan nan nan
nan nan nan
nan nan nan
nan nan nan
nan nan nan
nan nan nan
0 0 0
0 0 0
1.55448e-005 -1.71988e-005 5.73892e-007
-2.61956e-007 6.17634e-007 2.53992e-006
-1.87264e-005 1.21091e-005 6.87468e-007
-2.80237e-006 -1.64132e-006 3.34197e-007
-6.51307e-008 3.87033e-008 -7.41626e-007
-5.4067e-007 -6.15253e-009 -5.63253e-007
0 0 0
nan nan nan
nan nan nan
nan nan nan
nan nan nan
nan nan nan
nan nan nan
0 0 0
0 0 0
5.64353e-006 -2.41955e-006 -1.11823e-007
4.76537e-007 -1.49389e-005 1.09245e-006
-6.51736e-006 -1.90549e-006 -1.74719e-006
-6.13697e-007 -2.83473e-007 -5.78663e-008
6.69972e-007 3.23011e-007 -4.9659e-008
3.5481e-007 1.49737e-007 -8.91046e-008
0 0 0
nan nan nan
nan nan nan
nan nan nan
nan nan nan
nan nan nan
nan nan nan
0 0 0
0 0 0
1.83615e-007 -2.04616e-007 1.17176e-006
5.02079e-007 -5.07955e-006 -2.7292e-007
2.68716e-008 -1.16713e-007 -1.67364e-006
-6.42772e-007 6.61803e-007 -3.24268e-007
2.46457e-007 1.23686e-007 -1.2981e-007
1.7449e-007 -4.79918e-008 3.1389e-007
0 0 0
nan nan nan
nan nan nan
nan nan nan
nan nan nan
nan nan nan
nan nan nan
0 0 0
0 0 0
1.70197e-007 9.8711e-008 5.54854e-009
-9.24831e-008 -3.40986e-007 2.44297e-008
-6.35991e-007 -5.47633e-007 -4.16997e-008
-5.61054e-006 -5.92646e-006 1.28837e-007
3.41217e-007 -9.71616e-006 -8.71902e-008
3.93367e-006 -4.00945e-006 -8.74008e-008
0 0 0
nan nan nan
nan nan nan
nan nan nan
nan nan nan
nan nan nan
nan nan nan
0 0 0
0 0 0
1.10543e-007 3.75958e-008 -1.8101e-008
-1.02587e-007 -4.18178e-007 -3.88267e-008
-6.95708e-007 -1.15744e-006 -8.61296e-009
4.95168e-006 -1.63561e-006 -5.74135e-009
8.74523e-007 -1.06684e-006 5.0818e-006
-4.75843e-006 -1.25377e-007 -6.12851e-010
0 0 0
nan nan nan
nan nan nan
nan nan nan
nan nan nan
nan nan nan
nan nan nan
0 0 0
0 0 0
1.50974e-007 -7.68121e-008 1.04694e-010
-3.46206e-007 5.47446e-008 -2.15154e-009
-9.72424e-009 -1.02692e-006 -4.07382e-008
-2.25241e-007 -1.98063e-006 -2.16384e-007
-6.61809e-008 7.029e-006 -6.20915e-010
1.86331e-006 -1.85298e-006 6.28409e-010
0 0 0
nan nan nan
nan nan nan
nan nan nan
nan nan nan
nan nan nan
nan nan nan
0 0 0
0 0 0
6.31343e-008 -2.36316e-008 4.78508e-008
-3.57001e-008 -1.45052e-008 -3.18217e-008
3.29391e-007 4.52092e-008 4.9581e-009
1.91971e-008 2.18503e-006 9.55281e-008
1.36943e-007 5.3914e-007 4.1208e-007
9.55128e-007 2.50198e-007 7.7528e-010
0 0 0
nan nan nan
nan nan nan
nan nan nan
nan nan nan
nan nan nan
nan nan nan
0 0 0
0 0 0
1.38115 1.38115 2.82909e-008
1.50755 1.78387 1.4625e-007
0.266275 0.216473 -3.18813e-008
1.18075 0.580275 1.06068e-005
-2.03425 -4.29881 -1.56351e-008
5.27562 -3.22044 -1.93075e-008
0 0 0
nan nan nan
nan nan nan
nan nan nan
nan nan nan
nan nan nan
nan nan nan
0 0 0
0 0 0
0.342852 0.066384 2.65006e-008
0.109059 -0.0204231 -0.366519
-0.260321 -0.000335703 -0.366886
-0.0795838 -0.000313076 0.00966147
2.12548 0.0830547 1.27316
-0.0291067 -0.208234 -2.20169
0 0 0
nan nan nan
nan nan nan
nan nan nan
nan nan nan
nan nan nan
nan nan nan
0 0 0
0 0 0
0.0644502 0.0110853 2.00673e-008
-0.000417494 -0.287015 -0.0208939
-0.0502208 -0.477268 0.000457466
-0.00106022 0.0573328 -1.88743e-005
0.448191 2.23782 0.000791449
0.0014751 -2.06168 -0.134927
0 0 0
nan nan nan
nan nan nan
nan nan nan
nan nan nan
nan nan nan
nan nan nan
0 0 0
0.5 0 0
0.0221353 1.23115e-007 -1.88591e-009
3.3551e-005 0.0202635 -0.00645734
-0.0349199 3.01033e-005 2.2148e-005
0.000115102 9.74846e-005 -0.0075989
0.0268298 -0.000623608 7.85174e-005
-0.000148618 0.207409 -0.00408301
0.5 0 0
nan nan nan
nan nan nan
nan nan nan
nan nan nan
nan nan nan
nan nan nan
0.5 0 0
0 0 0
0 0 0
0 0 0
0 0 0
0 0 0
0 0 0
0 0 0
0 0 0
0 0 0
0 0 0
0 0 0
0 0 0
0 0 0
0 0 0
0 0 0
0 0 0
7.92831e-007 2.1263e-007 -6.53722e-009
-6.44058e-006 4.51535e-007 -1.04839e-008
1.19822e-006 1.56867e-006 -5.37548e-008
9.46724e-005 7.01224e-005 1.22829e-007
1.47888e-005 0.000110117 -4.64752e-009
-6.18015e-005 4.35236e-005 -3.37163e-008
0 0 0
nan nan nan
nan nan nan
nan nan nan
nan nan nan
nan nan nan
nan nan nan
0 0 0
0 0 0
3.13054e-006 2.3915e-005 -3.97506e-010
-1.05527e-005 1.53455e-005 -6.05684e-009
-6.18844e-006 -6.61042e-006 9.80208e-009
-4.9614e-005 -1.54148e-006 1.94388e-008
7.35776e-007 7.55874e-006 -3.29242e-006
5.09958e-005 4.80782e-006 6.76775e-009
0 0 0
nan nan nan
nan nan nan
nan nan nan
nan nan nan
nan nan nan
nan nan nan
0 0 0
0 0 0
-2.57585e-005 1.17347e-005 -5.47698e-009
-2.90333e-005 -3.65744e-007 1.37225e-008
-1.02447e-005 -5.6002e-008 1.1379e-007
-8.2865e-007 -7.93932e-007 4.53268e-008
3.95032e-006 -9.69168e-005 -6.45017e-008
8.84039e-007 7.45879e-009 7.03353e-009
0 0 0
nan nan nan
nan nan nan
nan nan nan
nan nan nan
nan nan nan
nan nan nan
0 0 0
0 0 0
-5.99595e-007 -1.72983e-005 -1.09528e-007
-3.37796e-007 4.18055e-007 2.25603e-005
-3.04545e-006 1.19217e-005 -1.03041e-007
-3.33928e-006 -1.84033e-006 -1.10977e-007
3.96095e-007 -3.54438e-008 1.42143e-008
-5.79692e-007 3.12559e-008 1.97047e-008
0 0 0
nan nan nan
nan nan nan
nan nan nan
nan nan nan
nan nan nan
nan nan nan
0 0 0
0 0 0
5.76989e-006 -2.12518e-006 -3.49743e-009
4.57273e-007 4.68026e-007 -7.80074e-009
-6.48365e-006 -1.63885e-006 1.08989e-008
-5.68127e-007 3.41578e-008 -2.48006e-008
8.28556e-007 2.96304e-007 -1.7369e-008
3.26148e-007 1.78212e-007 9.46446e-009
0 0 0
nan nan nan
nan nan nan
nan nan nan
nan nan nan
nan nan nan
nan nan nan
0 0 0
0 0 0
3.32704e-007 -1.99126e-007 6.87443e-009
4.35419e-007 -5.59227e-006 -1.19549e-007
-1.95714e-007 -2.98597e-007 5.88133e-009
-4.61131e-007 5.36699e-007 -3.14482e-008
3.57494e-007 1.58798e-007 -6.01308e-009
1.50465e-007 -5.41698e-008 9.15824e-009
0 0 0
nan nan nan
nan nan nan
nan nan nan
nan nan nan
nan nan nan
nan nan nan
0 0 0
0 0 0
1.8502e-007 9.81288e-008 -1.04239e-008
1.95945e-008 3.00158e-008 -1.53944e-008
-6.82796e-007 -4.64952e-007 1.16721e-007
-5.59828e-006 -5.75299e-006 1.58347e-008
3.80629e-007 -1.06077e-005 -3.38942e-008
4.89861e-006 -4.98402e-006 -4.72204e-009
0 0 0
nan nan nan
nan nan nan
nan nan nan
nan nan nan
nan nan nan
nan nan nan
0 0 0
0 0 0
1.10603e-007 3.66821e-008 -9.55649e-011
-1.03521e-007 -4.17407e-007 -9.0683e-011
-6.10442e-007 -6.87031e-007 -9.57485e-009
5.41107e-006 -1.47431e-006 -2.5305e-009
7.85161e-007 -1.02406e-006 4.61193e-007
-5.21605e-006 -1.18117e-007 4.5931e-010
0 0 0
nan nan nan
nan nan nan
nan nan nan
nan nan nan
nan nan nan
nan nan nan
0 0 0
0 0 0
1.63539e-007 -8.23114e-008 5.04659e-010
-3.47663e-007 5.52359e-008 -2.01113e-009
-1.24128e-007 -1.05652e-006 1.44029e-009
-2.14417e-007 -2.03184e-006 -7.68992e-008
5.71431e-008 7.80181e-006 7.38076e-010
1.97434e-006 -1.9657e-006 2.49292e-010
0 0 0
nan nan nan
nan nan nan
nan nan nan
nan nan nan
nan nan nan
nan nan nan
0 0 0
0 0 0
7.05639e-008 -2.05342e-008 1.01769e-008
-2.90638e-008 -3.66997e-008 -6.48938e-009
2.31324e-007 -1.95184e-007 1.16302e-009
4.39504e-008 1.65498e-006 1.85859e-008
2.96154e-007 3.60063e-007 3.56852e-008
9.89178e-007 2.49886e-007 6.27374e-010
0 0 0
nan nan nan
nan nan nan
nan nan nan
nan nan nan
nan nan nan
nan nan nan
0 0 0
0 0 0
1.51311 1.51311 2.90611e-008
1.63969 1.94238 3.78818e-008
0.291711 0.234043 -3.93973e-009
1.28237 0.629558 8.56069e-007
-2.1959 -4.6507 4.40647e-009
5.72438 -3.50597 -2.7553e-008
0 0 0
nan nan nan
nan nan nan
nan nan nan
nan nan nan
nan nan nan
nan nan nan
0 0 0
0 0 0
0.375041 0.0721455 2.2462e-008
0.117824 -0.0223466 -0.0671149
-0.285481 -0.000229602 -0.0673437
-0.0878349 -0.000370583 0.00176936
2.2945 0.0896619 0.232615
-0.0295896 -0.224858 -0.40498
0 0 0
nan nan nan
nan nan nan
nan nan nan
nan nan nan
nan nan nan
nan nan nan
0 0 0
0 0 0
0.0701907 0.0119729 2.52502e-009
-0.000438224 -0.314254 -0.00373284
-0.0547434 -0.520094 -2.5372e-005
-0.00119574 0.0622989 -3.60721e-005
0.483837 2.42588 9.43692e-005
0.00163112 -2.22546 -0.0243749
0 0 0
nan nan nan
nan nan nan
nan nan nan
nan nan nan
nan nan nan
nan nan nan
0 0 0
0.5 0 0
0.0238984 1.37283e-007 -6.65394e-009
3.57013e-005 0.0221791 -0.00111788
-0.0377839 2.72487e-005 -8.84975e-007
0.000123823 0.000110339 -0.00138801
0.0290448 -0.000636602 1.05939e-005
-0.000159493 0.223946 -0.000706137
0.5 0 0
nan nan nan
nan nan nan
nan nan nan
nan nan nan
nan nan nan
nan nan nan
0.5 0 0
0 0 0
0 0 0
0 0 0
0 0 0
0 0 0
0 0 0
0 0 0
0 0 0
0 0 0
0 0 0
0 0 0
0 0 0
0 0 0
0 0 0
0 0 0
0 0 0
7.93099e-007 2.12713e-007 1.66398e-009
-6.48248e-006 4.50781e-007 7.74676e-010
1.19679e-006 1.57746e-006 2.91006e-008
9.49224e-005 7.02336e-005 4.4887e-009
1.48234e-005 0.000110291 -5.42423e-008
-6.19837e-005 4.35957e-005 -1.57156e-008
0 0 0
nan nan nan
nan nan nan
nan nan nan
nan nan nan
nan nan nan
nan nan nan
0 0 0
0 0 0
3.13078e-006 2.39139e-005 -3.68036e-009
-1.05518e-005 1.53489e-005 -6.27885e-010
-6.20116e-006 -6.638e-006 -2.64973e-009
-4.96922e-005 -1.54142e-006 -3.4166e-009
7.46681e-007 7.60463e-006 -8.92505e-008
5.10782e-005 4.82131e-006 1.13448e-009
0 0 0
nan nan nan
nan nan nan
nan nan nan
nan nan nan
nan nan nan
nan nan nan
0 0 0
0 0 0
-2.58318e-005 1.16608e-005 -1.21145e-009
-2.9039e-005 -5.13227e-007 1.04865e-009
-1.01824e-005 -1.27641e-007 1.40653e-009
-8.49316e-007 -8.1448e-007 4.85738e-009
3.96624e-006 -9.7106e-005 1.38179e-009
8.97928e-007 -5.81596e-009 1.48633e-009
0 0 0
nan nan nan
nan nan nan
nan nan nan
nan nan nan
nan nan nan
nan nan nan
0 0 0
0 0 0
-7.45516e-007 -1.72994e-005 8.1468e-010
-3.38471e-007 4.18959e-007 -6.00989e-007
-2.89564e-006 1.19314e-005 1.41767e-009
-3.35683e-006 -1.84821e-006 -5.6302e-010
3.96542e-007 -3.87796e-008 1.13534e-007
-5.64558e-007 3.34037e-008 -2.91323e-012
0 0 0
nan nan nan
nan nan nan
nan nan nan
nan nan nan
nan nan nan
nan nan nan
0 0 0
0 0 0
5.76792e-006 -2.12812e-006 -1.15016e-009
4.98559e-007 6.55428e-007 1.18689e-009
-6.48247e-006 -1.55657e-006 -3.14759e-009
-6.21198e-007 6.38872e-008 2.47354e-010
8.25336e-007 3.00207e-007 -2.59624e-009
3.37782e-007 1.67348e-007 1.16968e-009
0 0 0
nan nan nan
nan nan nan
nan nan nan
nan nan nan
nan nan nan
nan nan nan
0 0 0
0 0 0
3.32697e-007 -2.00106e-007 -2.45157e-009
5.17232e-007 -5.59298e-006 -2.1803e-009
-1.98183e-007 -3.02007e-007 2.444e-007
-5.68014e-007 5.38774e-007 7.15346e-010
3.58992e-007 1.58056e-007 -6.11201e-008
1.75401e-007 -5.57931e-008 7.57696e-011
0 0 0
nan nan nan
nan nan nan
nan nan nan
nan nan nan
nan nan nan
nan nan nan
0 0 0
0 0 0
1.85127e-007 9.66218e-008 -5.79569e-010
1.98314e-008 3.05585e-008 7.46496e-011
-6.89552e-007 -5.47928e-007 -8.10444e-009
-5.69405e-006 -5.84827e-006 3.17054e-009
3.86078e-007 -1.06801e-005 1.55832e-009
4.90398e-006 -4.98958e-006 -8.73779e-010
0 0 0
nan nan nan
nan nan nan
nan nan nan
nan nan nan
nan nan nan
nan nan nan
0 0 0
0 0 0
1.11583e-007 3.74841e-008 3.22312e-010
-1.03235e-007 -4.17723e-007 6.73598e-010
-6.20369e-007 -6.9743e-007 6.82931e-010
5.45891e-006 -1.49958e-006 -7.50122e-010
7.96647e-007 -1.03703e-006 5.61486e-008
-5.2636e-006 -1.16999e-007 1.06748e-010
0 0 0
nan nan nan
nan nan nan
nan nan nan
nan nan nan
nan nan nan
nan nan nan
0 0 0
0 0 0
1.66883e-007 -8.20663e-008 2.11773e-010
-3.47102e-007 5.80408e-008 1.63507e-010
-1.18249e-007 -1.06389e-006 1.02649e-009
-2.11999e-007 -2.04292e-006 1.21776e-008
5.37642e-008 7.87771e-006 1.82027e-010
2.00039e-006 -1.99228e-006 2.99689e-011
0 0 0
nan nan nan
nan nan nan
nan nan nan
nan nan nan
nan nan nan
nan nan nan
0 0 0
0 0 0
7.31613e-008 -1.90676e-008 2.08738e-009
-2.76704e-008 -4.15782e-008 -1.34427e-009
2.46625e-007 -2.16704e-007 4.50513e-010
4.97212e-008 1.66849e-006 3.5364e-009
2.98302e-007 3.5523e-007 6.81197e-009
9.97138e-007 2.51234e-007 1.66153e-010
0 0 0
nan nan nan
nan nan nan
nan nan nan
nan nan nan
nan nan nan
nan nan nan
0 0 0
0 0 0
1.54895 1.54895 4.52166e-009
1.67331 1.98317 7.94647e-009
0.298621 0.238229 -6.74774e-010
1.30812 0.642049 4.15223e-008
-2.23443 -4.73639 9.50294e-010
5.83715 -3.57982 -6.74087e-009
0 0 0
nan nan nan
nan nan nan
nan nan nan
nan nan nan
nan nan nan
nan nan nan
0 0 0
0 0 0
0.383779 0.073711 3.95865e-009
0.119886 -0.0228683 -0.014465
-0.292329 -0.000199584 -0.0137969
-0.090301 -0.000378504 0.000359667
2.33471 0.0911675 0.0470312
-0.0291776 -0.228892 -0.078578
0 0 0
nan nan nan
nan nan nan
nan nan nan
nan nan nan
nan nan nan
nan nan nan
0 0 0
0 0 0
0.0717468 0.0122112 7.9948e-010
-0.000442997 -0.321654 -0.000804521
-0.0559899 -0.53116 -3.84612e-006
-0.00122187 0.0635582 -8.02914e-006
0.492574 2.47253 8.10105e-006
0.001662 -2.26451 -0.00486198
0 0 0
nan nan nan
nan nan nan
nan nan nan
nan nan nan
nan nan nan
nan nan nan
0 0 0
0.5 0 0
0.0243735 1.40599e-007 -3.35321e-010
3.66669e-005 0.022699 -0.000239355
-0.0385375 2.61687e-005 -1.69464e-007
0.000125704 0.00011131 -0.000282445
0.0296234 -0.000648163 1.97832e-006
-0.00016234 0.227961 -0.000151182
0.5 0 0
nan nan nan
nan nan nan
nan nan nan
nan nan nan
nan nan nan
nan nan nan
0.5 0 0
0 0 0
0 0 0
0 0 0
0 0 0
0 0 0
0 0 0
0 0 0
0 0 0
0 0 0
0 0 0
0 0 0
0 0 0
0 0 0
0 0 0
0 0 0
0 0 0
7.93124e-007 2.12707e-007 0
-6.4871e-006 4.50711e-007 0
1.19661e-006 1.57837e-006 0
9.49524e-005 7.02479e-005 0
1.48278e-005 0.000110314 0
-6.20056e-005 4.36052e-005 0
0 0 0
nan nan nan
nan nan nan
nan nan nan
nan nan nan
nan nan nan
nan nan nan
0 0 0
0 0 0
3.1309e-006 2.39139e-005 0
-1.05517e-005 1.53494e-005 0
-6.20264e-006 -6.64101e-006 0
-4.97026e-005 -1.54147e-006 0
7.47896e-007 7.60981e-006 0
5.1089e-005 4.82304e-006 0
0 0 0
nan nan nan
nan nan nan
nan nan nan
nan nan nan
nan nan nan
nan nan nan
0 0 0
0 0 0
-2.58318e-005 1.16607e-005 0
-2.90398e-005 -5.13335e-007 0
-1.01836e-005 -1.27434e-007 0
-8.5028e-007 -8.15607e-007 0
3.96803e-006 -9.71278e-005 0
8.98281e-007 -6.10157e-009 0
0 0 0
nan nan nan
nan nan nan
nan nan nan
nan nan nan
nan nan nan
nan nan nan
0 0 0
0 0 0
-7.4555e-007 -1.72997e-005 0
-3.38553e-007 4.19082e-007 0
-2.8952e-006 1.19323e-005 0
-3.35641e-006 -1.84907e-006 0
3.96603e-007 -3.9083e-008 0
-5.64959e-007 3.3616e-008 0
0 0 0
nan nan nan