# vtk DataFile Version 2.0
KG NN0
ASCII
DATASET STRUCTURED_POINTS
DIMENSIONS 15 15 15
ORIGIN 0 0 0
SPACING 1 1 1
POINT_DATA 3375
VECTORS Vectors0 float
0 0 0
0 0 0
0 0 0
0 0 0
0 0 0
0 0 0
0 0 0
0 0 0
0 0 0
0 0 0
0 0 0
0 0 0
0 0 0
0 0 0
0 0 0
0 0 0
0 0 0
0 0 0
0 0 0
0 0 0
0 0 0
0 0 0
0 0 0
0 0 0
0 0 0
0 0 0
0 0 0
0 0 0
0 0 0
0 0 0
0 0 0
0 0 0
0 0 0
0 0 0
0 0 0
0 0 0
0 0 0
0 0 0
0 0 0
0 0 0
0 0 0
0 0 0
0 0 0
0 0 0
0 0 0
0 0 0
0 0 0
0 0 0
0 0 0
0 0 0
0 0 0
0 0 0
0 0 0
0 0 0
0 0 0
0 0 0
0 0 0
0 0 0
0 0 0
0 0 0
0 0 0
0 0 0
0 0 0
0 0 0
0 0 0
0 0 0
0 0 0
0 0 0
0 0 0
0 0 0
0 0 0
0 0 0
0 0 0
0 0 0
0 0 0
0 0 0
0 0 0
0 0 0
0 0 0
0 0 0
0 0 0
0 0 0
0 0 0
0 0 0
0 0 0
0 0 0
0 0 0
0 0 0
0 0 0
0 0 0
0 0 0
0 0 0
0 0 0
0 0 0
0 0 0
0 0 0
0 0 0
0 0 0
0 0 0
0 0 0
0 0 0
0 0 0
0 0 0
0 0 0
0 0 0
0 0 0
0 0 0
0 0 0
0 0 0
0 0 0
0 0 0
0 0 0
0 0 0
0 0 0
0 0 0
0 0 0
0 0 0
0 0 0
0 0 0
0 0 0
0 0 0
0 0 0
0 0 0
0 0 0
0 0 0
0 0 0
0 0 0
0 0 0
0 0 0
0 0 0
0 0 0
0 0 0
0 0 0
0 0 0
0 0 0
0 0 0
0 0 0
0 0 0
0 0 0
0 0 0
0 0 0
0 0 0
0 0 0
0 0 0
0 0 0
0 0 0
0 0 0
0 0 0
0 0 0
0 0 0
0 0 0
0 0 0
0 0 0
0 0 0
0 0 0
0 0 0
0 0 0
0 0 0
0 0 0
0 0 0
0 0 0
0 0 0
0 0 0
0 0 0
0 0 0
0 0 0
0 0 0
0 0 0
0 0 0
0 0 0
0 0 0
0 0 0
0 0 0
0 0 0
0 0 0
0 0 0
0 0 0
0 0 0
0 0 0
0 0 0
0 0 0
0 0 0
0 0 0
0 0 0
0 0 0
0 0 0
0 0 0
0 0 0
0 0 0
0 0 0
0 0 0
0 0 0
0 0 0
0 0 0
0 0 0
0 0 0
0 0 0
0 0 0
0 0 0
0 0 0
0 0 0
0 0 0
0 0 0
0 0 0
0 0 0
0 0 0
0 0 0
0 0 0
0 0 0
0 0 0
0.5 0 0
0.5 0 0
0.5 0 0
0.5 0 0
0.5 0 0
0.5 0 0
0.5 0 0
0.5 0 0
0.5 0 0
0.5 0 0
0.5 0 0
0.5 0 0
0.5 0 0
0.5 0 0
0.5 0 0
0 0 0
0 0 0
0 0 0
0 0 0
0 0 0
0 0 0
0 0 0
0 0 0
0 0 0
0 0 0
0 0 0
0 0 0
0 0 0
0 0 0
0 0 0
0 0 0
-0.000917383 -0.00149762 0.000138538
-0.000880028 -0.00133321 0.000143018
-0.000654903 -0.000973729 0.000109253
-0.000377619 -0.000716088 7.41972e-005
-0.000134781 -0.000564742 4.94544e-005
5.24377e-005 -0.000445043 3.19562e-005
0 0 0
-0.000917383 -0.00149762 0.000138538
-0.000880028 -0.00133321 0.000143018
-0.000654903 -0.000973729 0.000109253
-0.000377619 -0.000716088 7.41972e-005
-0.000134781 -0.000564742 4.94544e-005
5.24377e-005 -0.000445043 3.19562e-005
0 0 0
0 0 0
-0.00134692 -0.00201798 0.000216437
-0.00144048 -0.00189553 0.000251985
-0.00112504 -0.00156689 0.000211007
-0.00067265 -0.0013013 0.000151562
-0.000240092 -0.00110986 0.000106262
0.000103732 -0.000922414 7.72477e-005
0 0 0
-0.00134692 -0.00201798 0.000216437
-0.00144048 -0.00189553 0.000251985
-0.00112504 -0.00156689 0.000211007
-0.00067265 -0.0013013 0.000151562
-0.000240092 -0.00110986 0.000106262
0.000103732 -0.000922414 7.72477e-005
0 0 0
0 0 0
-0.0017989 -0.00233487 0.000264119
-0.00205779 -0.00244536 0.000336184
-0.00172529 -0.00234426 0.000306308
-0.00110664 -0.00218295 0.000243468
-0.000425038 -0.00200654 0.000192053
0.000196535 -0.00173708 0.000147639
0 0 0
-0.0017989 -0.00233487 0.000264119
-0.00205779 -0.00244536 0.000336184
-0.00172529 -0.00234426 0.000306308
-0.00110664 -0.00218295 0.000243468
-0.000425038 -0.00200654 0.000192053
0.000196535 -0.00173708 0.000147639
0 0 0
0 0 0
-0.00202255 -0.00240714 0.000294966
-0.0025631 -0.00292141 0.000426032
-0.00236977 -0.00324259 0.000425506
-0.00171536 -0.00344631 0.000385661
-0.000710284 -0.00351867 0.000334836
0.000377452 -0.00326621 0.000270591
0 0 0
-0.00202255 -0.00240714 0.000294966
-0.0025631 -0.00292141 0.000426032
-0.00236977 -0.00324259 0.000425506
-0.00171536 -0.00344631 0.000385661
-0.000710284 -0.00351867 0.000334836
0.000377452 -0.00326621 0.000270591
0 0 0
0 0 0
-0.00193767 -0.00226483 0.000285969
-0.00269864 -0.00314152 0.000454444
-0.00289222 -0.0041473 0.000529609
-0.00232464 -0.00519003 0.000552717
-0.000986815 -0.00612155 0.000557552
0.000913941 -0.00625308 0.000503595
0 0 0
-0.00193767 -0.00226483 0.000285969
-0.00269864 -0.00314152 0.000454444
-0.00289222 -0.0041473 0.000529609
-0.00232464 -0.00519003 0.000552717
-0.000986815 -0.00612155 0.000557552
0.000913941 -0.00625308 0.000503595
0 0 0
0 0 0
-0.00151995 -0.00207831 0.000240045
-0.00234855 -0.00323308 0.000425456
-0.00275723 -0.00495891 0.000566584
-0.00249206 -0.00755617 0.000743955
-0.000662213 -0.0104847 0.000918271
0.00228199 -0.0117733 0.000940574
0 0 0
-0.00151995 -0.00207831 0.000240045
-0.00234855 -0.00323308 0.000425456
-0.00275723 -0.00495891 0.000566584
-0.00249206 -0.00755617 0.000743955
-0.000662213 -0.0104847 0.000918271
0.00228199 -0.0117733 0.000940574
0 0 0
0 0 0
-0.00115491 -0.00227077 0.000241484
-0.0014388 -0.00342885 0.000373102
-0.00177884 -0.00601359 0.000601849
-0.00108987 -0.010806 0.000977709
0.00126719 -0.0173968 0.00150134
0.00583048 -0.0213467 0.00172536
0 0 0
-0.00115491 -0.00227077 0.000241484
-0.0014388 -0.00342885 0.000373102
-0.00177884 -0.00601359 0.000601849
-0.00108987 -0.010806 0.000977709
0.00126719 -0.0173968 0.00150134
0.00583048 -0.0213467 0.00172536
0 0 0
0 0 0
-0.000864705 -0.00287109 0.000278083
-0.000672415 -0.00446493 0.000460605
0.000537503 -0.00801723 0.00077726
0.00248589 -0.0160648 0.00147756
0.00761896 -0.0283488 0.00254663
0.0129351 -0.0358653 0.00294056
0 0 0
-0.000864705 -0.00287109 0.000278083
-0.000672415 -0.00446493 0.000460605
0.000537503 -0.00801723 0.00077726
0.00248589 -0.0160648 0.00147756
0.00761896 -0.0283488 0.00254663
0.0129351 -0.0358653 0.00294056
0 0 0
0 0 0
-0.00123061 -0.00441216 0.000435548
0.000589886 -0.00682229 0.000703527
0.00360821 -0.0129029 0.00135563
0.0113899 -0.0260846 0.00277137
0.0198066 -0.0447224 0.00434042
0.0272775 -0.0561729 0.00488283
0 0 0
-0.00123061 -0.00441216 0.000435548
0.000589886 -0.00682229 0.000703527
0.00360821 -0.0129029 0.00135563
0.0113899 -0.0260846 0.00277137
0.0198066 -0.0447224 0.00434042
0.0272775 -0.0561729 0.00488283
0 0 0
0 0 0
-0.000669714 -0.00620734 0.000568699
0.00143321 -0.0124759 0.00126052
0.0120107 -0.0243851 0.00289372
0.0258981 -0.0440001 0.00512717
0.0442112 -0.0692619 0.00774236
0.0439721 -0.0756827 0.00671995
0 0 0
-0.000669714 -0.00620734 0.000568699
0.00143321 -0.0124759 0.00126052
0.0120107 -0.0243851 0.00289372
0.0258981 -0.0440001 0.00512717
0.0442112 -0.0692619 0.00774236
0.0439721 -0.0756827 0.00671995
0 0 0
0 0 0
-0.00149414 -0.0108219 0.00105654
0.00867538 -0.0240282 0.00266672
0.0253378 -0.0481521 0.00548814
0.0591614 -0.0772671 0.010398
0.0699977 -0.0894643 0.0107365
0.0635019 -0.0961065 0.00884006
0 0 0
-0.00149414 -0.0108219 0.00105654
0.00867538 -0.0240282 0.00266672
0.0253378 -0.0481521 0.00548814
0.0591614 -0.0772671 0.010398
0.0699977 -0.0894643 0.0107365
0.0635019 -0.0961065 0.00884006
0 0 0
0 0 0
0.00496634 -0.0166214 0.00176631
0.0189335 -0.0521825 0.0053928
0.0713199 -0.0987934 0.0130454
0.0903728 -0.103505 0.013985
0.0979539 -0.110486 0.0143407
0.0833147 -0.114291 0.010865
0 0 0
0.00496634 -0.0166214 0.00176631
0.0189335 -0.0521825 0.0053928
0.0713199 -0.0987934 0.0130454
0.0903728 -0.103505 0.013985
0.0979539 -0.110486 0.0143407
0.0833147 -0.114291 0.010865
0 0 0
0 0 0
0.00489675 -0.0416828 0.00407182
0.0886782 -0.12933 0.0170146
0.109862 -0.130814 0.0169676
0.119066 -0.133363 0.0177154
0.122296 -0.133781 0.0177653
0.11049 -0.130265 0.0138256
0 0 0
0.00489675 -0.0416828 0.00407182
0.0886782 -0.12933 0.0170146
0.109862 -0.130814 0.0169676
0.119066 -0.133363 0.0177154
0.122296 -0.133781 0.0177653
0.11049 -0.130265 0.0138256
0 0 0
0.5 0 0
0.5 0 0
0.5 0 0
0.5 0 0
0.5 0 0
0.5 0 0
0.5 0 0
0.5 0 0
0.5 0 0
0.5 0 0
0.5 0 0
0.5 0 0
0.5 0 0
0.5 0 0
0.5 0 0
0 0 0
0 0 0
0 0 0
0 0 0
0 0 0
0 0 0
0 0 0
0 0 0
0 0 0
0 0 0
0 0 0
0 0 0
0 0 0
0 0 0
0 0 0
0 0 0
-0.000970299 -0.00159193 4.09694e-005
-0.000928788 -0.00137632 3.68988e-005
-0.000692106 -0.000986826 2.52587e-005
-0.000399918 -0.000725017 1.63183e-005
-0.000143678 -0.000576409 1.11828e-005
5.38911e-005 -0.000460296 7.72976e-006
0 0 0
-0.000970299 -0.00159193 4.09694e-005
-0.000928788 -0.00137632 3.68988e-005
-0.000692106 -0.000986826 2.52587e-005
-0.000399918 -0.000725017 1.63183e-005
-0.000143678 -0.000576409 1.11828e-005
5.38911e-005 -0.000460296 7.72976e-006
0 0 0
0 0 0
-0.00143208 -0.0021171 6.29056e-005
-0.00151544 -0.00191942 6.53661e-005
-0.00116225 -0.00157414 5.015e-005
-0.000682486 -0.00131861 3.44257e-005
-0.000237283 -0.00113529 2.3835e-005
0.000110428 -0.000947515 1.78866e-005
0 0 0
-0.00143208 -0.0021171 6.29056e-005
-0.00151544 -0.00191942 6.53661e-005
-0.00116225 -0.00157414 5.015e-005
-0.000682486 -0.00131861 3.44257e-005
-0.000237283 -0.00113529 2.3835e-005
0.000110428 -0.000947515 1.78866e-005
0 0 0
0 0 0
-0.00193362 -0.00248309 7.74107e-005
-0.00214988 -0.00251817 8.49226e-005
-0.00175331 -0.00238799 6.9127e-005
-0.00110334 -0.00221541 5.21241e-005
-0.000414937 -0.00202972 4.1217e-005
0.00020383 -0.00175235 3.20567e-005
0 0 0
-0.00193362 -0.00248309 7.74107e-005
-0.00214988 -0.00251817 8.49226e-005
-0.00175331 -0.00238799 6.9127e-005
-0.00110334 -0.00221541 5.21241e-005
-0.000414937 -0.00202972 4.1217e-005
0.00020383 -0.00175235 3.20567e-005
0 0 0
0 0 0
-0.00217381 -0.00258587 9.30891e-005
-0.00266895 -0.00304554 0.000113405
-0.00241303 -0.00331754 9.80212e-005
-0.00172971 -0.00348692 8.21224e-005
-0.000710914 -0.00353751 6.85133e-005
0.0003834 -0.00327859 5.38301e-005
0 0 0
-0.00217381 -0.00258587 9.30891e-005
-0.00266895 -0.00304554 0.000113405
-0.00241303 -0.00331754 9.80212e-005
-0.00172971 -0.00348692 8.21224e-005
-0.000710914 -0.00353751 6.85133e-005
0.0003834 -0.00327859 5.38301e-005
0 0 0
0 0 0
-0.00208052 -0.0024434 9.49096e-005
-0.0028159 -0.00328145 0.000126937
-0.00296592 -0.00423903 0.000126708
-0.00235987 -0.00524821 0.000118968
-0.000992801 -0.00615997 0.000111744
0.000925838 -0.00628016 9.671e-005
0 0 0
-0.00208052 -0.0024434 9.49096e-005
-0.0028159 -0.00328145 0.000126937
-0.00296592 -0.00423903 0.000126708
-0.00235987 -0.00524821 0.000118968
-0.000992801 -0.00615997 0.000111744
0.000925838 -0.00628016 9.671e-005
0 0 0
0 0 0
-0.00164464 -0.00224737 8.03169e-005
-0.00247244 -0.00338845 0.000122831
-0.00283824 -0.00508891 0.000138722
-0.00253025 -0.00766073 0.000160846
-0.000665494 -0.0105525 0.000182399
0.00229142 -0.0117998 0.000177056
0 0 0
-0.00164464 -0.00224737 8.03169e-005
-0.00247244 -0.00338845 0.000122831
-0.00283824 -0.00508891 0.000138722
-0.00253025 -0.00766073 0.000160846
-0.000665494 -0.0105525 0.000182399
0.00229142 -0.0117998 0.000177056
0 0 0
0 0 0
-0.00125974 -0.0024384 7.83246e-005
-0.00154033 -0.00360658 0.000108397
-0.00185644 -0.0061935 0.000149272
-0.00113573 -0.0109538 0.000209672
0.00123627 -0.0174694 0.000291794
0.00582121 -0.021359 0.000318773
0 0 0
-0.00125974 -0.0024384 7.83246e-005
-0.00154033 -0.00360658 0.000108397
-0.00185644 -0.0061935 0.000149272
-0.00113573 -0.0109538 0.000209672
0.00123627 -0.0174694 0.000291794
0.00582121 -0.021359 0.000318773
0 0 0
0 0 0
-0.000945711 -0.00303482 8.33836e-005
-0.000766986 -0.00465765 0.00012703
0.000447114 -0.00822135 0.000184342
0.00238947 -0.0162227 0.000303784
0.00753741 -0.0284084 0.000482209
0.0129004 -0.0358743 0.000539136
0 0 0
-0.000945711 -0.00303482 8.33836e-005
-0.000766986 -0.00465765 0.00012703
0.000447114 -0.00822135 0.000184342
0.00238947 -0.0162227 0.000303784
0.00753741 -0.0284084 0.000482209
0.0129004 -0.0358743 0.000539136
0 0 0
0 0 0
-0.00132153 -0.00459104 0.000118306
0.000486034 -0.00701912 0.000173308
0.00346605 -0.013109 0.000293407
0.0112213 -0.0262311 0.000541984
0.0196701 -0.0447649 0.000810508
0.0272487 -0.0562036 0.000900196
0 0 0
-0.00132153 -0.00459104 0.000118306
0.000486034 -0.00701912 0.000173308
0.00346605 -0.013109 0.000293407
0.0112213 -0.0262311 0.000541984
0.0196701 -0.0447649 0.000810508
0.0272487 -0.0562036 0.000900196
0 0 0
0 0 0
-0.000770531 -0.00638703 0.000140429
0.00127906 -0.0126821 0.000279441
0.0117933 -0.0245664 0.000577283
0.025644 -0.0441194 0.000978402
0.0440719 -0.0692947 0.0014572
0.0440029 -0.0757485 0.00124391
0 0 0
-0.000770531 -0.00638703 0.000140429
0.00127906 -0.0126821 0.000279441
0.0117933 -0.0245664 0.000577283
0.025644 -0.0441194 0.000978402
0.0440719 -0.0692947 0.0014572
0.0440029 -0.0757485 0.00124391
0 0 0
0 0 0
-0.00162527 -0.0109996 0.000238275
0.0084523 -0.0241952 0.000533192
0.0250196 -0.0482861 0.0010476
0.0588878 -0.0773401 0.00199847
0.0699208 -0.0894871 0.00202881
0.0636237 -0.0961986 0.00164388
0 0 0
-0.00162527 -0.0109996 0.000238275
0.0084523 -0.0241952 0.000533192
0.0250196 -0.0482861 0.0010476
0.0588878 -0.0773401 0.00199847
0.0699208 -0.0894871 0.00202881
0.0636237 -0.0961986 0.00164388
0 0 0
0 0 0
0.00479778 -0.0167223 0.000349959
0.0186227 -0.0522794 0.00102449
0.0710341 -0.0988241 0.00250694
0.0901827 -0.103486 0.00266096
0.0979566 -0.11049 0.00273263
0.0835017 -0.114349 0.00201753
0 0 0
0.00479778 -0.0167223 0.000349959
0.0186227 -0.0522794 0.00102449
0.0710341 -0.0988241 0.00250694
0.0901827 -0.103486 0.00266096
0.0979566 -0.11049 0.00273263
0.0835017 -0.114349 0.00201753
0 0 0
0 0 0
0.0047071 -0.0416354 0.000761768
0.0885043 -0.129245 0.00328353
0.10981 -0.130634 0.00321222
0.119044 -0.133205 0.00336149
0.122374 -0.133655 0.00338212
0.1107 -0.130217 0.00257036
0 0 0
0.0047071 -0.0416354 0.000761768
0.0885043 -0.129245 0.00328353
0.10981 -0.130634 0.00321222
0.119044 -0.133205 0.00336149
0.122374 -0.133655 0.00338212
0.1107 -0.130217 0.00257036
0 0 0
0.5 0 0
0.5 0 0
0.5 0 0
0.5 0 0
0.5 0 0
0.5 0 0
0.5 0 0
0.5 0 0
0.5 0 0
0.5 0 0
0.5 0 0
0.5 0 0
0.5 0 0
0.5 0 0
0.5 0 0
0 0 0
0 0 0
0 0 0
0 0 0
0 0 0
0 0 0
0 0 0
0 0 0
0 0 0
0 0 0
0 0 0
0 0 0
0 0 0
0 0 0
0 0 0
0 0 0
-0.000973077 -0.00159768 5.9374e-006
-0.000930808 -0.0013804 5.08373e-006
-0.000693494 -0.000989105 3.60923e-006
-0.000400756 -0.000726294 2.66316e-006
-0.00014391 -0.000577375 2.19091e-006
5.42046e-005 -0.000461368 1.57715e-006
0 0 0
-0.000973077 -0.00159768 5.9374e-006
-0.000930808 -0.0013804 5.08373e-006
-0.000693494 -0.000989105 3.60923e-006
-0.000400756 -0.000726294 2.66316e-006
-0.00014391 -0.000577375 2.19091e-006
5.42046e-005 -0.000461368 1.57715e-006
0 0 0
0 0 0
-0.00143536 -0.00212138 1.20607e-005
-0.00151875 -0.00192117 1.23409e-005
-0.00116437 -0.0015752 9.16285e-006
-0.000683415 -0.00131995 6.12992e-006
-0.000237388 -0.00113693 4.17339e-006
0.000110715 -0.000949085 3.12987e-006
0 0 0
-0.00143536 -0.00212138 1.20607e-005
-0.00151875 -0.00192117 1.23409e-005
-0.00116437 -0.0015752 9.16285e-006
-0.000683415 -0.00131995 6.12992e-006
-0.000237388 -0.00113693 4.17339e-006
0.000110715 -0.000949085 3.12987e-006
0 0 0
0 0 0
-0.00193797 -0.00248727 1.43942e-005
-0.00215264 -0.00251934 1.61868e-005
-0.00175379 -0.00238867 1.32094e-005
-0.00110286 -0.00221623 9.75971e-006
-0.000414426 -0.0020305 7.47939e-006
0.000203994 -0.00175281 5.90352e-006
0 0 0
-0.00193797 -0.00248727 1.43942e-005
-0.00215264 -0.00251934 1.61868e-005
-0.00175379 -0.00238867 1.32094e-005
-0.00110286 -0.00221623 9.75971e-006
-0.000414426 -0.0020305 7.47939e-006
0.000203994 -0.00175281 5.90352e-006
0 0 0
0 0 0
-0.00217916 -0.00259229 1.66363e-005
-0.00267198 -0.0030497 2.01433e-005
-0.0024136 -0.00331997 1.73348e-005
-0.00172949 -0.00348807 1.45803e-005
-0.000710586 -0.00353775 1.24585e-005
0.000383676 -0.00327862 9.98414e-006
0 0 0
-0.00217916 -0.00259229 1.66363e-005
-0.00267198 -0.0030497 2.01433e-005
-0.0024136 -0.00331997 1.73348e-005
-0.00172949 -0.00348807 1.45803e-005
-0.000710586 -0.00353775 1.24585e-005
0.000383676 -0.00327862 9.98414e-006
0 0 0
0 0 0
-0.00208589 -0.00245037 1.81155e-005
-0.00281979 -0.00328692 2.32728e-005
-0.00296814 -0.0042427 2.26879e-005
-0.00236086 -0.00525054 2.12156e-005
-0.000992794 -0.0061615 1.99467e-005
0.000926565 -0.00628141 1.70412e-005
0 0 0
-0.00208589 -0.00245037 1.81155e-005
-0.00281979 -0.00328692 2.32728e-005
-0.00296814 -0.0042427 2.26879e-005
-0.00236086 -0.00525054 2.12156e-005
-0.000992794 -0.0061615 1.99467e-005
0.000926565 -0.00628141 1.70412e-005
0 0 0
0 0 0
-0.00164941 -0.00225367 1.59032e-005
-0.00247684 -0.00339392 2.35936e-005
-0.00284093 -0.00509348 2.5735e-005
-0.00253138 -0.00766462 2.90405e-005
-0.000665302 -0.0105554 3.21717e-005
0.00229205 -0.0118012 3.08455e-005
0 0 0
-0.00164941 -0.00225367 1.59032e-005
-0.00247684 -0.00339392 2.35936e-005
-0.00284093 -0.00509348 2.5735e-005
-0.00253138 -0.00766462 2.90405e-005
-0.000665302 -0.0105554 3.21717e-005
0.00229205 -0.0118012 3.08455e-005
0 0 0
0 0 0
-0.00126392 -0.00244465 1.50902e-005
-0.00154404 -0.00361279 2.08159e-005
-0.00185893 -0.00619969 2.77004e-005
-0.00113693 -0.010959 3.75409e-005
0.00123556 -0.017472 5.12397e-005
0.00582106 -0.0213596 5.55841e-005
0 0 0
-0.00126392 -0.00244465 1.50902e-005
-0.00154404 -0.00361279 2.08159e-005
-0.00185893 -0.00619969 2.77004e-005
-0.00113693 -0.010959 3.75409e-005
0.00123556 -0.017472 5.12397e-005
0.00582106 -0.0213596 5.55841e-005
0 0 0
0 0 0
-0.000949048 -0.00304101 1.57923e-005
-0.000770572 -0.0046647 2.36521e-005
0.000444034 -0.00822859 3.34467e-005
0.00238641 -0.0162282 5.39148e-005
0.00753491 -0.0284104 8.43653e-005
0.0128994 -0.0358747 9.37189e-005
0 0 0
-0.000949048 -0.00304101 1.57923e-005
-0.000770572 -0.0046647 2.36521e-005
0.000444034 -0.00822859 3.34467e-005
0.00238641 -0.0162282 5.39148e-005
0.00753491 -0.0284104 8.43653e-005
0.0128994 -0.0358747 9.37189e-005
0 0 0
0 0 0
-0.00132515 -0.00459766 2.22453e-005
0.000482087 -0.00702623 3.18629e-005
0.00346096 -0.0131164 5.26774e-005
0.0112155 -0.0262363 9.54721e-005
0.0196657 -0.0447664 0.000141397
0.0272479 -0.056205 0.000156597
0 0 0
-0.00132515 -0.00459766 2.22453e-005
0.000482087 -0.00702623 3.18629e-005
0.00346096 -0.0131164 5.26774e-005
0.0112155 -0.0262363 9.54721e-005
0.0196657 -0.0447664 0.000141397
0.0272479 -0.056205 0.000156597
0 0 0
0 0 0
-0.00077445 -0.00639354 2.58819e-005
0.00127334 -0.0126894 5.05936e-005
0.0117855 -0.0245729 0.000102267
0.025635 -0.0441237 0.000171529
0.0440673 -0.069296 0.000254631
0.0440042 -0.075751 0.000216602
0 0 0
-0.00077445 -0.00639354 2.58819e-005
0.00127334 -0.0126894 5.05936e-005
0.0117855 -0.0245729 0.000102267
0.025635 -0.0441237 0.000171529
0.0440673 -0.069296 0.000254631
0.0440042 -0.075751 0.000216602
0 0 0
0 0 0
-0.00163023 -0.011006 4.32144e-005
0.00844417 -0.0242011 9.44439e-005
0.025008 -0.0482909 0.000183641
0.058878 -0.0773428 0.000350868
0.0699184 -0.089488 0.000354804
0.0636284 -0.096202 0.000286515
0 0 0
-0.00163023 -0.011006 4.32144e-005
0.00844417 -0.0242011 9.44439e-005
0.025008 -0.0482909 0.000183641
0.058878 -0.0773428 0.000350868
0.0699184 -0.089488 0.000354804
0.0636284 -0.096202 0.000286515
0 0 0
0 0 0
0.00479152 -0.0167259 6.18535e-005
0.0186112 -0.0522829 0.000179339
0.0710238 -0.0988252 0.000440047
0.090176 -0.103485 0.000466018
0.0979569 -0.11049 0.000478765
0.0835087 -0.114351 0.000351512
0 0 0
0.00479152 -0.0167259 6.18535e-005
0.0186112 -0.0522829 0.000179339
0.0710238 -0.0988252 0.000440047
0.090176 -0.103485 0.000466018
0.0979569 -0.11049 0.000478765
0.0835087 -0.114351 0.000351512
0 0 0
0 0 0
0.0047 -0.0416337 0.000132883
0.0884979 -0.129242 0.000576951
0.109809 -0.130627 0.000561906
0.119043 -0.133199 0.000588324
0.122377 -0.13365 0.000592395
0.110708 -0.130215 0.000447903
0 0 0
0.0047 -0.0416337 0.000132883
0.0884979 -0.129242 0.000576951
0.109809 -0.130627 0.000561906
0.119043 -0.133199 0.000588324
0.122377 -0.13365 0.000592395
0.110708 -0.130215 0.000447903
0 0 0
0.5 0 0
0.5 0 0
0.5 0 0
0.5 0 0
0.5 0 0
0.5 0 0
0.5 0 0
0.5 0 0
0.5 0 0
0.5 0 0
0.5 0 0
0.5 0 0
0.5 0 0
0.5 0 0
0.5 0 0
0 0 0
0 0 0
0 0 0
0 0 0
0 0 0
0 0 0
0 0 0
0 0 0
0 0 0
0 0 0
0 0 0
0 0 0
0 0 0
0 0 0
0 0 0
0 0 0
-0.000973105 -0.00159776 7.55659e-007
-0.000930796 -0.00138045 7.20083e-007
-0.000693472 -0.00098913 6.01674e-007
-0.000400742 -0.000726305 5.10843e-007
-0.000143902 -0.00057738 4.51982e-007
5.42132e-005 -0.00046138 3.20809e-007
0 0 0
-0.000973105 -0.00159776 7.55659e-007
-0.000930796 -0.00138045 7.20083e-007
-0.000693472 -0.00098913 6.01674e-007
-0.000400742 -0.000726305 5.10843e-007
-0.000143902 -0.00057738 4.51982e-007
5.42132e-005 -0.00046138 3.20809e-007
0 0 0
0 0 0
-0.00143547 -0.00212158 1.65586e-006
-0.00151884 -0.00192131 1.60943e-006
-0.00116444 -0.00157529 1.19235e-006
-0.000683448 -0.00132002 8.58476e-007
-0.00023739 -0.00113699 6.66652e-007
0.000110736 -0.000949146 5.10026e-007
0 0 0
-0.00143547 -0.00212158 1.65586e-006
-0.00151884 -0.00192131 1.60943e-006
-0.00116444 -0.00157529 1.19235e-006
-0.000683448 -0.00132002 8.58476e-007
-0.00023739 -0.00113699 6.66652e-007
0.000110736 -0.000949146 5.10026e-007
0 0 0
0 0 0
-0.0019381 -0.00248743 2.49602e-006
-0.00215275 -0.00251941 2.82493e-006
-0.00175384 -0.00238873 2.27684e-006
-0.00110287 -0.0022163 1.64631e-006
-0.00041442 -0.00203056 1.21738e-006
0.000204005 -0.00175286 9.61096e-007
0 0 0
-0.0019381 -0.00248743 2.49602e-006
-0.00215275 -0.00251941 2.82493e-006
-0.00175384 -0.00238873 2.27684e-006
-0.00110287 -0.0022163 1.64631e-006
-0.00041442 -0.00203056 1.21738e-006
0.000204005 -0.00175286 9.61096e-007
0 0 0
0 0 0
-0.0021793 -0.00259245 2.77054e-006
-0.00267206 -0.00304977 3.51909e-006
-0.00241361 -0.00332001 3.10814e-006
-0.00172948 -0.00348809 2.59864e-006
-0.000710572 -0.00353777 2.20202e-006
0.000383679 -0.00327862 1.81918e-006
0 0 0
-0.0021793 -0.00259245 2.77054e-006
-0.00267206 -0.00304977 3.51909e-006
-0.00241361 -0.00332001 3.10814e-006
-0.00172948 -0.00348809 2.59864e-006
-0.000710572 -0.00353777 2.20202e-006
0.000383679 -0.00327862 1.81918e-006
0 0 0
0 0 0
-0.00208605 -0.00245058 2.96935e-006
-0.00281989 -0.00328707 3.84737e-006
-0.00296818 -0.0042428 3.81671e-006
-0.00236087 -0.00525059 3.63799e-006
-0.000992787 -0.00616152 3.52807e-006
0.000926584 -0.00628143 3.04719e-006
0 0 0
-0.00208605 -0.00245058 2.96935e-006
-0.00281989 -0.00328707 3.84737e-006
-0.00296818 -0.0042428 3.81671e-006
-0.00236087 -0.00525059 3.63799e-006
-0.000992787 -0.00616152 3.52807e-006
0.000926584 -0.00628143 3.04719e-006
0 0 0
0 0 0
-0.00164956 -0.00225387 2.78894e-006
-0.00247697 -0.0033941 4.03009e-006
-0.00284101 -0.00509364 4.38999e-006
-0.00253141 -0.00766474 5.00644e-006
-0.000665292 -0.0105554 5.55586e-006
0.00229208 -0.0118013 5.28112e-006
0 0 0
-0.00164956 -0.00225387 2.78894e-006
-0.00247697 -0.0033941 4.03009e-006
-0.00284101 -0.00509364 4.38999e-006
-0.00253141 -0.00766474 5.00644e-006
-0.000665292 -0.0105554 5.55586e-006
0.00229208 -0.0118013 5.28112e-006
0 0 0
0 0 0
-0.00126405 -0.00244484 2.69335e-006
-0.00154415 -0.00361298 3.73588e-006
-0.00185901 -0.00619988 4.89403e-006
-0.00113697 -0.0109591 6.51219e-006
0.00123554 -0.0174721 8.7962e-006
0.00582106 -0.0213596 9.54492e-006
0 0 0
-0.00126405 -0.00244484 2.69335e-006
-0.00154415 -0.00361298 3.73588e-006
-0.00185901 -0.00619988 4.89403e-006
-0.00113697 -0.0109591 6.51219e-006
0.00123554 -0.0174721 8.7962e-006
0.00582106 -0.0213596 9.54492e-006
0 0 0
0 0 0
-0.000949154 -0.0030412 2.74615e-006
-0.000770683 -0.00466491 4.15472e-006
0.000443941 -0.00822881 5.82551e-006
0.00238632 -0.0162283 9.30252e-006
0.00753484 -0.0284105 1.45237e-005
0.0128994 -0.0358748 1.61396e-005
0 0 0
-0.000949154 -0.0030412 2.74615e-006
-0.000770683 -0.00466491 4.15472e-006
0.000443941 -0.00822881 5.82551e-006
0.00238632 -0.0162283 9.30252e-006
0.00753484 -0.0284105 1.45237e-005
0.0128994 -0.0358748 1.61396e-005
0 0 0
0 0 0
-0.00132526 -0.00459786 3.86858e-006
0.000481965 -0.00702644 5.4921e-006
0.0034608 -0.0131166 9.06503e-006
0.0112154 -0.0262365 1.64382e-005
0.0196655 -0.0447665 2.43362e-005
0.0272479 -0.056205 2.69337e-005
0 0 0
-0.00132526 -0.00459786 3.86858e-006
0.000481965 -0.00702644 5.4921e-006
0.0034608 -0.0131166 9.06503e-006
0.0112154 -0.0262365 1.64382e-005
0.0196655 -0.0447665 2.43362e-005
0.0272479 -0.056205 2.69337e-005
0 0 0
0 0 0
-0.000774572 -0.00639374 4.50078e-006
0.00127317 -0.0126896 8.75379e-006
0.0117852 -0.0245731 1.76308e-005
0.0256348 -0.0441238 2.95385e-005
0.0440672 -0.0692961 4.38262e-005
0.0440043 -0.0757511 3.72563e-005
0 0 0
-0.000774572 -0.00639374 4.50078e-006
0.00127317 -0.0126896 8.75379e-006
0.0117852 -0.0245731 1.76308e-005
0.0256348 -0.0441238 2.95385e-005
0.0440672 -0.0692961 4.38262e-005
0.0440043 -0.0757511 3.72563e-005
0 0 0
0 0 0
-0.00163038 -0.0110062 7.4844e-006
0.00844392 -0.0242013 1.63027e-005
0.0250077 -0.048291 3.16384e-005
0.0588777 -0.0773428 6.04498e-005
0.0699183 -0.089488 6.1078e-005
0.0636285 -0.0962021 4.92942e-005
0 0 0
-0.00163038 -0.0110062 7.4844e-006
0.00844392 -0.0242013 1.63027e-005
0.0250077 -0.048291 3.16384e-005
0.0588777 -0.0773428 6.04498e-005
0.0699183 -0.089488 6.1078e-005
0.0636285 -0.0962021 4.92942e-005
0 0 0
0 0 0
0.00479132 -0.016726 1.06693e-005
0.0186109 -0.052283 3.08803e-005
0.0710234 -0.0988252 7.58092e-005
0.0901758 -0.103485 8.02507e-005
0.097957 -0.11049 8.24495e-005
0.0835089 -0.114351 6.04704e-005
0 0 0
0.00479132 -0.016726 1.06693e-005
0.0186109 -0.052283 3.08803e-005
0.0710234 -0.0988252 7.58092e-005
0.0901758 -0.103485 8.02507e-005
0.097957 -0.11049 8.24495e-005
0.0835089 -0.114351 6.04704e-005
0 0 0
0 0 0
0.00469978 -0.0416336 2.28671e-005
0.0884977 -0.129241 9.94038e-005
0.109809 -0.130627 9.67337e-005
0.119043 -0.133199 0.000101293
0.122377 -0.13365 0.000102009
0.110708 -0.130215 7.70558e-005
0 0 0
0.00469978 -0.0416336 2.28671e-005
0.0884977 -0.129241 9.94038e-005
0.109809 -0.130627 9.67337e-005
0.119043 -0.133199 0.000101293
0.122377 -0.13365 0.000102009
0.110708 -0.130215 7.70558e-005
0 0 0
0.5 0 0
0.5 0 0
0.5 0 0
0.5 0 0
0.5 0 0
0.5 0 0
0.5 0 0
0.5 0 0
0.5 0 0
0.5 0 0
0.5 0 0
0.5 0 0
0.5 0 0
0.5 0 0
0.5 0 0
0 0 0
0 0 0
0 0 0
0 0 0
0 0 0
0 0 0
0 0 0
0 0 0
0 0 0
0 0 0
0 0 0
0 0 0
0 0 0
0 0 0
0 0 0
0 0 0
-0.000973104 -0.00159776 2.00152e-007
-0.000930795 -0.00138045 2.23772e-007
-0.00069347 -0.000989129 1.89004e-007
-0.000400741 -0.000726304 1.3793e-007
-0.000143902 -0.00057738 1.01086e-007
5.4213e-005 -0.000461379 7.14334e-008
0 0 0
-0.000973104 -0.00159776 2.00152e-007
-0.000930795 -0.00138045 2.23772e-007
-0.00069347 -0.000989129 1.89004e-007
-0.000400741 -0.000726304 1.3793e-007
-0.000143902 -0.00057738 1.01086e-007
5.4213e-005 -0.000461379 7.14334e-008
0 0 0
0 0 0
-0.00143547 -0.00212159 2.07525e-007
-0.00151884 -0.00192132 2.09198e-007
-0.00116444 -0.00157529 1.75656e-007
-0.000683448 -0.00132002 1.48517e-007
-0.00023739 -0.00113699 1.32794e-007
0.000110736 -0.000949148 1.02486e-007
0 0 0
-0.00143547 -0.00212159 2.07525e-007
-0.00151884 -0.00192132 2.09198e-007
-0.00116444 -0.00157529 1.75656e-007
-0.000683448 -0.00132002 1.48517e-007
-0.00023739 -0.00113699 1.32794e-007
0.000110736 -0.000949148 1.02486e-007
0 0 0
0 0 0
-0.00193811 -0.00248744 3.58348e-007
-0.00215276 -0.00251942 3.85757e-007
-0.00175384 -0.00238873 3.07948e-007
-0.00110287 -0.0022163 2.33558e-007
-0.00041442 -0.00203057 1.874e-007
0.000204006 -0.00175287 1.4943e-007
0 0 0
-0.00193811 -0.00248744 3.58348e-007
-0.00215276 -0.00251942 3.85757e-007
-0.00175384 -0.00238873 3.07948e-007
-0.00110287 -0.0022163 2.33558e-007
-0.00041442 -0.00203057 1.874e-007
0.000204006 -0.00175287 1.4943e-007
0 0 0
0 0 0
-0.00217931 -0.00259245 4.64672e-007
-0.00267206 -0.00304978 5.99437e-007
-0.00241361 -0.00332001 5.28977e-007
-0.00172948 -0.00348809 4.35903e-007
-0.000710572 -0.00353777 3.59825e-007
0.000383679 -0.00327862 3.01152e-007
0 0 0
-0.00217931 -0.00259245 4.64672e-007
-0.00267206 -0.00304978 5.99437e-007
-0.00241361 -0.00332001 5.28977e-007
-0.00172948 -0.00348809 4.35903e-007
-0.000710572 -0.00353777 3.59825e-007
0.000383679 -0.00327862 3.01152e-007
0 0 0
0 0 0
-0.00208605 -0.00245058 4.78176e-007
-0.00281989 -0.00328708 6.51999e-007
-0.00296818 -0.0042428 6.64353e-007
-0.00236087 -0.00525059 6.32004e-007
-0.000992786 -0.00616152 6.18747e-007
0.000926584 -0.00628143 5.51016e-007
0 0 0
-0.00208605 -0.00245058 4.78176e-007
-0.00281989 -0.00328708 6.51999e-007
-0.00296818 -0.0042428 6.64353e-007
-0.00236087 -0.00525059 6.32004e-007
-0.000992786 -0.00616152 6.18747e-007
0.000926584 -0.00628143 5.51016e-007
0 0 0
0 0 0
-0.00164957 -0.00225388 4.54354e-007
-0.00247697 -0.0033941 6.55302e-007
-0.00284101 -0.00509364 7.28643e-007
-0.00253141 -0.00766474 8.54314e-007
-0.000665292 -0.0105554 9.70467e-007
0.00229208 -0.0118013 9.23668e-007
0 0 0
-0.00164957 -0.00225388 4.54354e-007
-0.00247697 -0.0033941 6.55302e-007
-0.00284101 -0.00509364 7.28643e-007
-0.00253141 -0.00766474 8.54314e-007
-0.000665292 -0.0105554 9.70467e-007
0.00229208 -0.0118013 9.23668e-007
0 0 0
0 0 0
-0.00126405 -0.00244484 4.68237e-007
-0.00154416 -0.00361298 6.35657e-007
-0.00185901 -0.00619988 8.34349e-007
-0.00113697 -0.0109591 1.1184e-006
0.00123554 -0.0174721 1.50682e-006
0.00582106 -0.0213596 1.63031e-006
0 0 0
-0.00126405 -0.00244484 4.68237e-007
-0.00154416 -0.00361298 6.35657e-007
-0.00185901 -0.00619988 8.34349e-007
-0.00113697 -0.0109591 1.1184e-006
0.00123554 -0.0174721 1.50682e-006
0.00582106 -0.0213596 1.63031e-006
0 0 0
0 0 0
-0.000949156 -0.00304121 4.77179e-007
-0.000770686 -0.00466491 7.34042e-007
0.000443937 -0.00822882 1.01855e-006
0.00238632 -0.0162283 1.59873e-006
0.00753483 -0.0284105 2.48628e-006
0.0128994 -0.0358747 2.76824e-006
0 0 0
-0.000949156 -0.00304121 4.77179e-007
-0.000770686 -0.00466491 7.34042e-007
0.000443937 -0.00822882 1.01855e-006
0.00238632 -0.0162283 1.59873e-006
0.00753483 -0.0284105 2.48628e-006
0.0128994 -0.0358747 2.76824e-006
0 0 0
0 0 0
-0.00132527 -0.00459787 6.61952e-007
0.000481962 -0.00702645 9.4407e-007
0.00346079 -0.0131166 1.55682e-006
0.0112153 -0.0262365 2.81923e-006
0.0196655 -0.0447665 4.17442e-006
0.0272479 -0.056205 4.6207e-006
0 0 0
-0.00132527 -0.00459787 6.61952e-007
0.000481962 -0.00702645 9.4407e-007
0.00346079 -0.0131166 1.55682e-006
0.0112153 -0.0262365 2.81923e-006
0.0196655 -0.0447665 4.17442e-006
0.0272479 -0.056205 4.6207e-006
0 0 0
0 0 0
-0.000774575 -0.00639375 7.73594e-007
0.00127316 -0.0126896 1.49733e-006
0.0117852 -0.0245731 3.01877e-006
0.0256347 -0.0441238 5.06476e-006
0.0440671 -0.0692961 7.51833e-006
0.0440043 -0.0757511 6.3905e-006
0 0 0
-0.000774575 -0.00639375 7.73594e-007
0.00127316 -0.0126896 1.49733e-006
0.0117852 -0.0245731 3.01877e-006
0.0256347 -0.0441238 5.06476e-006
0.0440671 -0.0692961 7.51833e-006
0.0440043 -0.0757511 6.3905e-006
0 0 0
0 0 0
-0.00163039 -0.0110062 1.28508e-006
0.00844391 -0.0242013 2.7956e-006
0.0250077 -0.048291 5.42542e-006
0.0588777 -0.0773428 1.03693e-005
0.0699183 -0.089488 1.04792e-005
0.0636285 -0.0962021 8.45629e-006
0 0 0